TITLE = 'DEM DATA | DEM DATA | DEM DATA | DEM DATA'
VARIABLES = 'X' 'Y' 'E' 
ZONE T='SubZone'
I=80 J=80 K=1 ZONETYPE=Ordered
DATAPACKING=POINT
DT=(SINGLE SINGLE SINGLE )
0                               0                              1.1000000000000000888         
0                               0.012500000000000000694        1.1000000000000000888         
0                               0.025000000000000001388        1.1000000000000000888         
0                               0.037500000000000005551        1.1000000000000000888         
0                               0.050000000000000002776        1.1000000000000000888         
0                               0.0625                         1.1000000000000000888         
0                               0.075000000000000011102        1.1000000000000000888         
0                               0.087500000000000008327        1.1000000000000000888         
0                               0.10000000000000000555         1.1000000000000000888         
0                               0.11250000000000000278         1.1000000000000000888         
0                               0.125                          1.1000000000000000888         
0                               0.1375000000000000111          1.1000000000000000888         
0                               0.1500000000000000222          1.1000000000000000888         
0                               0.16250000000000000555         1.1000000000000000888         
0                               0.17500000000000001665         1.1000000000000000888         
0                               0.1875                         1.1000000000000000888         
0                               0.2000000000000000111          1.1000000000000000888         
0                               0.2125000000000000222          1.1000000000000000888         
0                               0.22500000000000000555         1.1000000000000000888         
0                               0.23750000000000001665         1.1000000000000000888         
0                               0.25                           1.1000000000000000888         
0                               0.2625000000000000111          1.1000000000000000888         
0                               0.2750000000000000222          1.1000000000000000888         
0                               0.28750000000000003331         1.1000000000000000888         
0                               0.30000000000000004441         1.1000000000000000888         
0                               0.3125                         1.1000000000000000888         
0                               0.3250000000000000111          1.1000000000000000888         
0                               0.3375000000000000222          1.1000000000000000888         
0                               0.35000000000000003331         1.1000000000000000888         
0                               0.36250000000000004441         1.1000000000000000888         
0                               0.375                          1.1000000000000000888         
0                               0.3875000000000000111          1.1000000000000000888         
0                               0.4000000000000000222          1.1000000000000000888         
0                               0.41250000000000003331         1.1000000000000000888         
0                               0.42500000000000004441         1.1000000000000000888         
0                               0.4375                         1.1000000000000000888         
0                               0.4500000000000000111          1.1000000000000000888         
0                               0.4625000000000000222          1.1000000000000000888         
0                               0.47500000000000003331         1.1000000000000000888         
0                               0.48750000000000004441         1.1000000000000000888         
0                               0.5                            1.1000000000000000888         
0                               0.51250000000000006661         1.1000000000000000888         
0                               0.5250000000000000222          1.1000000000000000888         
0                               0.5374999999999999778          1.1000000000000000888         
0                               0.55000000000000004441         1.1000000000000000888         
0                               0.5625                         1.1000000000000000888         
0                               0.57500000000000006661         1.1000000000000000888         
0                               0.5875000000000000222          1.1000000000000000888         
0                               0.60000000000000008882         1.1000000000000000888         
0                               0.61250000000000004441         1.1000000000000000888         
0                               0.625                          1.1000000000000000888         
0                               0.63750000000000006661         1.1000000000000000888         
0                               0.6500000000000000222          1.1000000000000000888         
0                               0.66250000000000008882         1.1000000000000000888         
0                               0.67500000000000004441         1.1000000000000000888         
0                               0.6875                         1.1000000000000000888         
0                               0.70000000000000006661         1.1000000000000000888         
0                               0.7125000000000000222          1.1000000000000000888         
0                               0.72500000000000008882         1.1000000000000000888         
0                               0.73750000000000004441         1.1000000000000000888         
0                               0.75                           1.1000000000000000888         
0                               0.76250000000000006661         1.1000000000000000888         
0                               0.7750000000000000222          1.1000000000000000888         
0                               0.78750000000000008882         1.1000000000000000888         
0                               0.80000000000000004441         1.1000000000000000888         
0                               0.8125                         1.1000000000000000888         
0                               0.82500000000000006661         1.1000000000000000888         
0                               0.8375000000000000222          1.1000000000000000888         
0                               0.85000000000000008882         1.1000000000000000888         
0                               0.86250000000000004441         1.1000000000000000888         
0                               0.875                          1.1000000000000000888         
0                               0.88750000000000006661         1.1000000000000000888         
0                               0.9000000000000000222          1.1000000000000000888         
0                               0.91250000000000008882         1.1000000000000000888         
0                               0.92500000000000004441         1.1000000000000000888         
0                               0.9375                         1.1000000000000000888         
0                               0.95000000000000006661         1.1000000000000000888         
0                               0.9625000000000000222          1.1000000000000000888         
0                               0.97500000000000008882         1.1000000000000000888         
0                               0.98750000000000004441         1.1000000000000000888         
0.012500000000000000694         0                              1.1000000000000000888         
0.012500000000000000694         0.012500000000000000694        1.1000306066522578252         
0.012500000000000000694         0.025000000000000001388        1.1000669139203398394         
0.012500000000000000694         0.037500000000000005551        1.100106064058224975          
0.012500000000000000694         0.050000000000000002776        1.1001463365038894882         
0.012500000000000000694         0.0625                         1.1001868388622286776         
0.012500000000000000694         0.075000000000000011102        1.1002272134444948115         
0.012500000000000000694         0.087500000000000008327        1.1002673766717725456         
0.012500000000000000694         0.10000000000000000555         1.1003073496117057317         
0.012500000000000000694         0.11250000000000000278         1.1003471758763059274         
0.012500000000000000694         0.125                          1.1003868932038392003         
0.012500000000000000694         0.1375000000000000111          1.10042652860546597           
0.012500000000000000694         0.1500000000000000222          1.1004661005372919913         
0.012500000000000000694         0.16250000000000000555         1.1005056217772641869         
0.012500000000000000694         0.17500000000000001665         1.1005451014945575317         
0.012500000000000000694         0.1875                         1.1005845465314791909         
0.012500000000000000694         0.2000000000000000111          1.1006239621509115167         
0.012500000000000000694         0.2125000000000000222          1.1006633523781363948         
0.012500000000000000694         0.22500000000000000555         1.1007027209894768571         
0.012500000000000000694         0.23750000000000001665         1.1007420715603160044         
0.012500000000000000694         0.25                           1.1007814070574446497         
0.012500000000000000694         0.2625000000000000111          1.1008207299455310402         
0.012500000000000000694         0.2750000000000000222          1.1008600423159724535         
0.012500000000000000694         0.28750000000000003331         1.1008993459829590211         
0.012500000000000000694         0.30000000000000004441         1.1009386425522915687         
0.012500000000000000694         0.3125                         1.1009779334716145449         
0.012500000000000000694         0.3250000000000000111          1.1010172200668808529         
0.012500000000000000694         0.3375000000000000222          1.1010565035696033842         
0.012500000000000000694         0.35000000000000003331         1.1010957851369578275         
0.012500000000000000694         0.36250000000000004441         1.101135065866764684          
0.012500000000000000694         0.375                          1.1011743468086994113         
0.012500000000000000694         0.3875000000000000111          1.1012136289725462657         
0.012500000000000000694         0.4000000000000000222          1.1012529133341644183         
0.012500000000000000694         0.41250000000000003331         1.1012922008399486096         
0.012500000000000000694         0.42500000000000004441         1.1013314924098120962         
0.012500000000000000694         0.4375                         1.1013707889392583272         
0.012500000000000000694         0.4500000000000000111          1.101410091300797589          
0.012500000000000000694         0.4625000000000000222          1.1014494003445880477         
0.012500000000000000694         0.47500000000000003331         1.1014887168991112087         
0.012500000000000000694         0.48750000000000004441         1.1015280417712220995         
0.012500000000000000694         0.5                            1.1015673757464286009         
0.012500000000000000694         0.51250000000000006661         1.1016067195890439923         
0.012500000000000000694         0.5250000000000000222          1.101646074042479384          
0.012500000000000000694         0.5374999999999999778          1.1016854398301030304         
0.012500000000000000694         0.55000000000000004441         1.101724817655985067          
0.012500000000000000694         0.5625                         1.1017642082064322828         
0.012500000000000000694         0.57500000000000006661         1.1018036121521961324         
0.012500000000000000694         0.5875000000000000222          1.1018430301513699732         
0.012500000000000000694         0.60000000000000008882         1.101882462853057465          
0.012500000000000000694         0.61250000000000004441         1.1019219109024829262         
0.012500000000000000694         0.625                          1.1019613749473426978         
0.012500000000000000694         0.63750000000000006661         1.1020008556458562587         
0.012500000000000000694         0.6500000000000000222          1.1020403536770988495         
0.012500000000000000694         0.66250000000000008882         1.1020798697538363164         
0.012500000000000000694         0.67500000000000004441         1.1021194046389302112         
0.012500000000000000694         0.6875                         1.1021589591662122043         
0.012500000000000000694         0.70000000000000006661         1.1021985342668143559         
0.012500000000000000694         0.7125000000000000222          1.10223813100370438           
0.012500000000000000694         0.72500000000000008882         1.1022777506160073013         
0.012500000000000000694         0.73750000000000004441         1.1023173945778745875         
0.012500000000000000694         0.75                           1.10235706467727268           
0.012500000000000000694         0.76250000000000006661         1.1023967631218207774         
0.012500000000000000694         0.7750000000000000222          1.1024364926771919038         
0.012500000000000000694         0.78750000000000008882         1.1024762567686912096         
0.012500000000000000694         0.80000000000000004441         1.102516058711004332          
0.012500000000000000694         0.8125                         1.1025558948578242369         
0.012500000000000000694         0.82500000000000006661         1.1025957580788123824         
0.012500000000000000694         0.8375000000000000222          1.1026356460798731884         
0.012500000000000000694         0.85000000000000008882         1.1026755565685808502         
0.012500000000000000694         0.86250000000000004441         1.1027154859765584405         
0.012500000000000000694         0.875                          1.1027554283276261859         
0.012500000000000000694         0.88750000000000006661         1.1027953727363990488         
0.012500000000000000694         0.9000000000000000222          1.1028352970664745403         
0.012500000000000000694         0.91250000000000008882         1.1028751521400648183         
0.012500000000000000694         0.92500000000000004441         1.102914826301784057          
0.012500000000000000694         0.9375                         1.1029540789758947028         
0.012500000000000000694         0.95000000000000006661         1.1029924483683990477         
0.012500000000000000694         0.9625000000000000222          1.1030291945792034536         
0.012500000000000000694         0.97500000000000008882         1.103063444476486854          
0.012500000000000000694         0.98750000000000004441         1.103094826684320795          
0.025000000000000001388         0                              1.1000000000000000888         
0.025000000000000001388         0.012500000000000000694        1.1000644297261730209         
0.025000000000000001388         0.025000000000000001388        1.1001365469111270556         
0.025000000000000001388         0.037500000000000005551        1.10021364474008565           
0.025000000000000001388         0.050000000000000002776        1.1002932866810046786         
0.025000000000000001388         0.0625                         1.1003738278249681759         
0.025000000000000001388         0.075000000000000011102        1.1004544075495756861         
0.025000000000000001388         0.087500000000000008327        1.1005347017170070689         
0.025000000000000001388         0.10000000000000000555         1.1006146601011632669         
0.025000000000000001388         0.11250000000000000278         1.1006943317871709098         
0.025000000000000001388         0.125                          1.1007737816628337946         
0.025000000000000001388         0.1375000000000000111          1.100853062956332673          
0.025000000000000001388         0.1500000000000000222          1.100932213925725156          
0.025000000000000001388         0.16250000000000000555         1.1010112613532789805         
0.025000000000000001388         0.17500000000000001665         1.1010902243592839422         
0.025000000000000001388         0.1875                         1.1011691170861575007         
0.025000000000000001388         0.2000000000000000111          1.1012479503623122667         
0.025000000000000001388         0.2125000000000000222          1.1013267327664071349         
0.025000000000000001388         0.22500000000000000555         1.1014054716424788172         
0.025000000000000001388         0.23750000000000001665         1.1014841734600195888         
0.025000000000000001388         0.25                           1.101562843746439091          
0.025000000000000001388         0.2625000000000000111          1.1016414872145627868         
0.025000000000000001388         0.2750000000000000222          1.1017201079491798499         
0.025000000000000001388         0.28750000000000003331         1.1017987095600505487         
0.025000000000000001388         0.30000000000000004441         1.1018772952945448118         
0.025000000000000001388         0.3125                         1.1019558681212200391         
0.025000000000000001388         0.3250000000000000111          1.1020344307914293758         
0.025000000000000001388         0.3375000000000000222          1.102112985885629115          
0.025000000000000001388         0.35000000000000003331         1.10219153584853502           
0.025000000000000001388         0.36250000000000004441         1.1022700830151608287         
0.025000000000000001388         0.375                          1.1023486296313962374         
0.025000000000000001388         0.3875000000000000111          1.1024271778690537538         
0.025000000000000001388         0.4000000000000000222          1.1025057298373830417         
0.025000000000000001388         0.41250000000000003331         1.1025842875920917052         
0.025000000000000001388         0.42500000000000004441         1.1026628531414384149         
0.025000000000000001388         0.4375                         1.1027414284513881171         
0.025000000000000001388         0.4500000000000000111          1.1028200154487233231         
0.025000000000000001388         0.4625000000000000222          1.1028986160236260439         
0.025000000000000001388         0.47500000000000003331         1.1029772320312367651         
0.025000000000000001388         0.48750000000000004441         1.1030558652924429275         
0.025000000000000001388         0.5                            1.1031345175949331949         
0.025000000000000001388         0.51250000000000006661         1.1032131906927775677         
0.025000000000000001388         0.5250000000000000222          1.103291886307542935          
0.025000000000000001388         0.5374999999999999778          1.1033706061278352184         
0.025000000000000001388         0.55000000000000004441         1.1034493518099399711         
0.025000000000000001388         0.5625                         1.1035281249784725244         
0.025000000000000001388         0.57500000000000006661         1.1036069272274096065         
0.025000000000000001388         0.5875000000000000222          1.1036857601221670144         
0.025000000000000001388         0.60000000000000008882         1.1037646252015236303         
0.025000000000000001388         0.61250000000000004441         1.103843523981701269          
0.025000000000000001388         0.625                          1.1039224579611461863         
0.025000000000000001388         0.63750000000000006661         1.1040014286269230759         
0.025000000000000001388         0.6500000000000000222          1.1040804374636634666         
0.025000000000000001388         0.66250000000000008882         1.104159485964723908          
0.025000000000000001388         0.67500000000000004441         1.1042385756467900659         
0.025000000000000001388         0.6875                         1.1043177080692045955         
0.025000000000000001388         0.70000000000000006661         1.104396884858336314          
0.025000000000000001388         0.7125000000000000222          1.1044761077396514359         
0.025000000000000001388         0.72500000000000008882         1.1045553785791450974         
0.025000000000000001388         0.73750000000000004441         1.1046346994378271056         
0.025000000000000001388         0.75                           1.104714072643375733          
0.025000000000000001388         0.76250000000000006661         1.1047935008800848777         
0.025000000000000001388         0.7750000000000000222          1.104872987265470119          
0.025000000000000001388         0.78750000000000008882         1.1049525351462106126         
0.025000000000000001388         0.80000000000000004441         1.1050321464015366857         
0.025000000000000001388         0.8125                         1.1051118175024416956         
0.025000000000000001388         0.82500000000000006661         1.1051915419635975901         
0.025000000000000001388         0.8375000000000000222          1.1052713150138091525         
0.025000000000000001388         0.85000000000000008882         1.1053511312792303478         
0.025000000000000001388         0.86250000000000004441         1.1054309823160075599         
0.025000000000000001388         0.875                          1.1055108532750588246         
0.025000000000000001388         0.88750000000000006661         1.105590715273307989          
0.025000000000000001388         0.9000000000000000222          1.1056705068354011345         
0.025000000000000001388         0.91250000000000008882         1.1057500922224643425         
0.025000000000000001388         0.92500000000000004441         1.1058291813661424996         
0.025000000000000001388         0.9375                         1.1059072097801414536         
0.025000000000000001388         0.95000000000000006661         1.1059832292380205043         
0.025000000000000001388         0.9625000000000000222          1.1060559573012189727         
0.025000000000000001388         0.97500000000000008882         1.1061242229307723939         
0.025000000000000001388         0.98750000000000004441         1.1061880030688822085         
0.037500000000000005551         0                              1.1000000000000000888         
0.037500000000000005551         0.012500000000000000694        1.1000997467680520003         
0.037500000000000005551         0.025000000000000001388        1.1002080114430619062         
0.037500000000000005551         0.037500000000000005551        1.1003226000197376955         
0.037500000000000005551         0.050000000000000002776        1.100440992420316233          
0.037500000000000005551         0.0625                         1.1005611196585629585         
0.037500000000000005551         0.075000000000000011102        1.1006816703138704305         
0.037500000000000005551         0.087500000000000008327        1.1008020108482461374         
0.037500000000000005551         0.10000000000000000555         1.1009219416842190853         
0.037500000000000005551         0.11250000000000000278         1.1010414693480075066         
0.037500000000000005551         0.125                          1.1011606653544916412         
0.037500000000000005551         0.1375000000000000111          1.1012796033429095299         
0.037500000000000005551         0.1500000000000000222          1.1013983410039724919         
0.037500000000000005551         0.16250000000000000555         1.1015169199796146504         
0.037500000000000005551         0.17500000000000001665         1.1016353701236845097         
0.037500000000000005551         0.1875                         1.1017537133946537775         
0.037500000000000005551         0.2000000000000000111          1.1018719665219383064         
0.037500000000000005551         0.2125000000000000222          1.1019901427620750756         
0.037500000000000005551         0.22500000000000000555         1.1021082531610926214         
0.037500000000000005551         0.23750000000000001665         1.1022263072013358531         
0.037500000000000005551         0.25                           1.1023443130207510876         
0.037500000000000005551         0.2625000000000000111          1.1024622776289070281         
0.037500000000000005551         0.2750000000000000222          1.1025802071506836111         
0.037500000000000005551         0.28750000000000003331         1.1026981070330490464         
0.037500000000000005551         0.30000000000000004441         1.1028159822017036262         
0.037500000000000005551         0.3125                         1.1029338371774073391         
0.037500000000000005551         0.3250000000000000111          1.1030516761629733935         
0.037500000000000005551         0.3375000000000000222          1.1031695031085555492         
0.037500000000000005551         0.35000000000000003331         1.1032873217614671546         
0.037500000000000005551         0.36250000000000004441         1.1034051357041210206         
0.037500000000000005551         0.375                          1.1035229483834945174         
0.037500000000000005551         0.3875000000000000111          1.1036407631333917667         
0.037500000000000005551         0.4000000000000000222          1.1037585831920886381         
0.037500000000000005551         0.41250000000000003331         1.1038764117158643696         
0.037500000000000005551         0.42500000000000004441         1.1039942517890393159         
0.037500000000000005551         0.4375                         1.1041121064325545298         
0.037500000000000005551         0.4500000000000000111          1.1042299786093039415         
0.037500000000000005551         0.4625000000000000222          1.1043478712290637489         
0.037500000000000005551         0.47500000000000003331         1.1044657871520078274         
0.037500000000000005551         0.48750000000000004441         1.1045837291907651956         
0.037500000000000005551         0.5                            1.1047017001125216673         
0.037500000000000005551         0.51250000000000006661         1.1048197026403749899         
0.037500000000000005551         0.5250000000000000222          1.1049377394538151265         
0.037500000000000005551         0.5374999999999999778          1.1050558131899783643         
0.037500000000000005551         0.55000000000000004441         1.105173926443850041          
0.037500000000000005551         0.5625                         1.1052920817693394628         
0.037500000000000005551         0.57500000000000006661         1.105410281679998219          
0.037500000000000005551         0.5875000000000000222          1.1055285286506042475         
0.037500000000000005551         0.60000000000000008882         1.1056468251186541973         
0.037500000000000005551         0.61250000000000004441         1.1057651734870073135         
0.037500000000000005551         0.625                          1.1058835761277079346         
0.037500000000000005551         0.63750000000000006661         1.1060020353863959652         
0.037500000000000005551         0.6500000000000000222          1.1061205535889455653         
0.037500000000000005551         0.66250000000000008882         1.106239133050040957          
0.037500000000000005551         0.67500000000000004441         1.1063577760840721531         
0.037500000000000005551         0.6875                         1.1064764850203077096         
0.037500000000000005551         0.70000000000000006661         1.1065952622217647416         
0.037500000000000005551         0.7125000000000000222          1.1067141101107815793         
0.037500000000000005551         0.72500000000000008882         1.1068330312019432071         
0.037500000000000005551         0.73750000000000004441         1.1069520281456872723         
0.037500000000000005551         0.75                           1.1070711037838898427         
0.037500000000000005551         0.76250000000000006661         1.1071902612055029014         
0.037500000000000005551         0.7750000000000000222          1.1073095037110523009         
0.037500000000000005551         0.78750000000000008882         1.1074288342826308362         
0.037500000000000005551         0.80000000000000004441         1.1075482537251792881         
0.037500000000000005551         0.8125                         1.1076677582558043245         
0.037500000000000005551         0.82500000000000006661         1.1077873411022332029         
0.037500000000000005551         0.8375000000000000222          1.1079069950714794945         
0.037500000000000005551         0.85000000000000008882         1.1080267108184038705         
0.037500000000000005551         0.86250000000000004441         1.1081464730845662636         
0.037500000000000005551         0.875                          1.1082662536317537949         
0.037500000000000005551         0.88750000000000006661         1.108385995005357616          
0.037500000000000005551         0.9000000000000000222          1.1085055739101807859         
0.037500000000000005551         0.91250000000000008882         1.1086247282498078448         
0.037500000000000005551         0.92500000000000004441         1.1087429382691045276         
0.037500000000000005551         0.9375                         1.1088592887871744352         
0.037500000000000005551         0.95000000000000006661         1.1089724171940291697         