TITLE = 'DEM DATA | DEM DATA | DEM DATA | DEM DATA'
VARIABLES = 'X' 'Y' 'E' 
ZONE T='SubZone'
I=10 J=10 K=1 ZONETYPE=Ordered
DATAPACKING=POINT
DT=(SINGLE SINGLE SINGLE )
0                               0                              1.1000000000000000888         
0                               0.10000000000000000555         1.1000000000000000888         
0                               0.2000000000000000111          1.1000000000000000888         
0                               0.30000000000000004441         1.1000000000000000888         
0                               0.4000000000000000222          1.1000000000000000888         
0                               0.5                            1.1000000000000000888         
0                               0.60000000000000008882         1.1000000000000000888         
0                               0.70000000000000006661         1.1000000000000000888         
0                               0.80000000000000004441         1.1000000000000000888         
0                               0.9000000000000000222          1.1000000000000000888         
0.10000000000000000555          0                              1.1000000000000000888         
0.10000000000000000555          0.10000000000000000555         1.1079942885204674408         
0.10000000000000000555          0.2000000000000000111          1.1182280155766215479         
0.10000000000000000555          0.30000000000000004441         1.1283471848162398565         
0.10000000000000000555          0.4000000000000000222          1.1382004720374729878         
0.10000000000000000555          0.5                            1.1480406696016991486         
0.10000000000000000555          0.60000000000000008882         1.1580706285307529324         
0.10000000000000000555          0.70000000000000006661         1.1684446925681517548         
0.10000000000000000555          0.80000000000000004441         1.1792594456781029244         
0.10000000000000000555          0.9000000000000000222          1.190216292889538563          
0.2000000000000000111           0                              1.1000000000000000888         
0.2000000000000000111           0.10000000000000000555         1.1166359479442529157         
0.2000000000000000111           0.2000000000000000111          1.1364204851697914389         
0.2000000000000000111           0.30000000000000004441         1.1565260749036916366         
0.2000000000000000111           0.4000000000000000222          1.176238571561436741          
0.2000000000000000111           0.5                            1.1958605362125960259         
0.2000000000000000111           0.60000000000000008882         1.2157706815445274984         
0.2000000000000000111           0.70000000000000006661         1.2362743159218834155         
0.2000000000000000111           0.80000000000000004441         1.2574558967024143108         
0.2000000000000000111           0.9000000000000000222          1.2786302734443411033         
0.30000000000000004441          0                              1.1000000000000000888         
0.30000000000000004441          0.10000000000000000555         1.1256400019115813116         
0.30000000000000004441          0.2000000000000000111          1.1547036429799435453         
0.30000000000000004441          0.30000000000000004441         1.1845540895490014321         
0.30000000000000004441          0.4000000000000000222          1.2140234854896667649         
0.30000000000000004441          0.5                            1.2432956817472016198         
0.30000000000000004441          0.60000000000000008882         1.2728682549966949811         
0.30000000000000004441          0.70000000000000006661         1.3031404650152356162         
0.30000000000000004441          0.80000000000000004441         1.3340948815855886433         
0.30000000000000004441          0.9000000000000000222          1.3649714533202053079         
0.4000000000000000222           0                              1.1000000000000000888         
0.4000000000000000222           0.10000000000000000555         1.1348759122012452849         
0.4000000000000000222           0.2000000000000000111          1.173119574795372877          
0.4000000000000000222           0.30000000000000004441         1.2124760348195813275         
0.4000000000000000222           0.4000000000000000222          1.2515310497087908104         
0.4000000000000000222           0.5                            1.2902583190939911351         
0.4000000000000000222           0.60000000000000008882         1.3291786268803524873         
0.4000000000000000222           0.70000000000000006661         1.3687129847786132508         
0.4000000000000000222           0.80000000000000004441         1.4087561676236364239         
0.4000000000000000222           0.9000000000000000222          1.4487607126422137327         
0.5                             0                              1.1000000000000000888         
0.5                             0.10000000000000000555         1.144275421987761332          
0.5                             0.2000000000000000111          1.1916741588654817807         
0.5                             0.30000000000000004441         1.2403249508358813458         
0.5                             0.4000000000000000222          1.2887364007224684226         
0.5                             0.5                            1.3366483247406784063         
0.5                             0.60000000000000008882         1.3845018709415637392         
0.5                             0.70000000000000006661         1.4326717974946459044         
0.5                             0.80000000000000004441         1.4810341673690663455         
0.5                             0.9000000000000000222          1.5294299418641390531         
0.60000000000000008882          0                              1.1000000000000000888         
0.60000000000000008882          0.10000000000000000555         1.1537960131407665187         
0.60000000000000008882          0.2000000000000000111          1.2103542393051074377         
0.60000000000000008882          0.30000000000000004441         1.2681146669510214853         
0.60000000000000008882          0.4000000000000000222          1.3256085544785236596         
0.60000000000000008882          0.5                            1.3823548201059887575         
0.60000000000000008882          0.60000000000000008882         1.4386270875978179884         
0.60000000000000008882          0.70000000000000006661         1.4947045280017601243         
0.60000000000000008882          0.80000000000000004441         1.5505183672268172401         
0.60000000000000008882          0.9000000000000000222          1.6063782495689025165         
0.70000000000000006661          0                              1.1000000000000000888         
0.70000000000000006661          0.10000000000000000555         1.1634160489658114113         
0.70000000000000006661          0.2000000000000000111          1.2291392191262839884         
0.70000000000000006661          0.30000000000000004441         1.2958389618217429629         
0.70000000000000006661          0.4000000000000000222          1.3621050733633626173         
0.70000000000000006661          0.5                            1.4272559852634798538         
0.70000000000000006661          0.60000000000000008882         1.4913378288736358623         
0.70000000000000006661          0.70000000000000006661         1.5545050689738306726         
0.70000000000000006661          0.80000000000000004441         1.616799488982770816          
0.70000000000000006661          0.9000000000000000222          1.6790193580974757115         
0.80000000000000004441          0                              1.1000000000000000888         
0.80000000000000004441          0.10000000000000000555         1.1732127788247739275         
0.80000000000000004441          0.2000000000000000111          1.2480634255211435768         
0.80000000000000004441          0.30000000000000004441         1.323493906820253585          
0.80000000000000004441          0.4000000000000000222          1.3981757581256486489         
0.80000000000000004441          0.5                            1.4712261148387311138         
0.80000000000000004441          0.60000000000000008882         1.5424265910756105313         
0.80000000000000004441          0.70000000000000006661         1.6118059513763856039         
0.80000000000000004441          0.80000000000000004441         1.6795813062827196216         
0.80000000000000004441          0.9000000000000000222          1.7469709720928889851         
0.9000000000000000222           0                              1.1000000000000000888         
0.9000000000000000222           0.10000000000000000555         1.1839472865523952283         
0.9000000000000000222           0.2000000000000000111          1.267949992953294025          
0.9000000000000000222           0.30000000000000004441         1.3516150074706791973         
0.9000000000000000222           0.4000000000000000222          1.4340977765654052689         
0.9000000000000000222           0.5                            1.5144217934351584809         
0.9000000000000000222           0.60000000000000008882         1.5921210087015116308         
0.9000000000000000222           0.70000000000000006661         1.6672043375920202468         
0.9000000000000000222           0.80000000000000004441         1.7400553021335281034         
0.9000000000000000222           0.9000000000000000222          1.8114218856886727949         