TITLE = 'DEM DATA | DEM DATA | DEM DATA | DEM DATA'
VARIABLES = 'X' 'Y' 'E' 
ZONE T='SubZone'
I=40 J=40 K=1 ZONETYPE=Ordered
DATAPACKING=POINT
DT=(SINGLE SINGLE SINGLE )
0                               0                              1.1000000000000000888         
0                               0.025000000000000001388        1.1000000000000000888         
0                               0.050000000000000002776        1.1000000000000000888         
0                               0.075000000000000011102        1.1000000000000000888         
0                               0.10000000000000000555         1.1000000000000000888         
0                               0.125                          1.1000000000000000888         
0                               0.1500000000000000222          1.1000000000000000888         
0                               0.17500000000000001665         1.1000000000000000888         
0                               0.2000000000000000111          1.1000000000000000888         
0                               0.22500000000000000555         1.1000000000000000888         
0                               0.25                           1.1000000000000000888         
0                               0.2750000000000000222          1.1000000000000000888         
0                               0.30000000000000004441         1.1000000000000000888         
0                               0.3250000000000000111          1.1000000000000000888         
0                               0.35000000000000003331         1.1000000000000000888         
0                               0.375                          1.1000000000000000888         
0                               0.4000000000000000222          1.1000000000000000888         
0                               0.42500000000000004441         1.1000000000000000888         
0                               0.4500000000000000111          1.1000000000000000888         
0                               0.47500000000000003331         1.1000000000000000888         
0                               0.5                            1.1000000000000000888         
0                               0.5250000000000000222          1.1000000000000000888         
0                               0.55000000000000004441         1.1000000000000000888         
0                               0.57500000000000006661         1.1000000000000000888         
0                               0.60000000000000008882         1.1000000000000000888         
0                               0.625                          1.1000000000000000888         
0                               0.6500000000000000222          1.1000000000000000888         
0                               0.67500000000000004441         1.1000000000000000888         
0                               0.70000000000000006661         1.1000000000000000888         
0                               0.72500000000000008882         1.1000000000000000888         
0                               0.75                           1.1000000000000000888         
0                               0.7750000000000000222          1.1000000000000000888         
0                               0.80000000000000004441         1.1000000000000000888         
0                               0.82500000000000006661         1.1000000000000000888         
0                               0.85000000000000008882         1.1000000000000000888         
0                               0.875                          1.1000000000000000888         
0                               0.9000000000000000222          1.1000000000000000888         
0                               0.92500000000000004441         1.1000000000000000888         
0                               0.95000000000000006661         1.1000000000000000888         
0                               0.97500000000000008882         1.1000000000000000888         
0.025000000000000001388         0                              1.1000000000000000888         
0.025000000000000001388         0.025000000000000001388        1.1004073264716593972         
0.025000000000000001388         0.050000000000000002776        1.1008661308582183835         
0.025000000000000001388         0.075000000000000011102        1.1013431849755250802         
0.025000000000000001388         0.10000000000000000555         1.1018222927151588575         
0.025000000000000001388         0.125                          1.1022986070907756506         
0.025000000000000001388         0.1500000000000000222          1.1027719199320100696         
0.025000000000000001388         0.17500000000000001665         1.1032430139354898468         
0.025000000000000001388         0.2000000000000000111          1.1037125481952934081         
0.025000000000000001388         0.22500000000000000555         1.1041809080545630373         
0.025000000000000001388         0.25                           1.1046483492086174305         
0.025000000000000001388         0.2750000000000000222          1.1051151043428091292         
0.025000000000000001388         0.30000000000000004441         1.1055813610632487798         
0.025000000000000001388         0.3250000000000000111          1.1060472782257539937         
0.025000000000000001388         0.35000000000000003331         1.1065129990662085913         
0.025000000000000001388         0.375                          1.1069786582696421462         
0.025000000000000001388         0.4000000000000000222          1.1074443854121593933         
0.025000000000000001388         0.42500000000000004441         1.1079103063465478574         
0.025000000000000001388         0.4500000000000000111          1.1083765433908885356         
0.025000000000000001388         0.47500000000000003331         1.1088432148190308091         
0.025000000000000001388         0.5                            1.1093104339737061004         
0.025000000000000001388         0.5250000000000000222          1.1097783082300507473         
0.025000000000000001388         0.55000000000000004441         1.1102469379894541746         
0.025000000000000001388         0.57500000000000006661         1.1107164158569766688         
0.025000000000000001388         0.60000000000000008882         1.1111868261470754238         
0.025000000000000001388         0.625                          1.111658244870111556          
0.025000000000000001388         0.6500000000000000222          1.112130740384122296          
0.025000000000000001388         0.67500000000000004441         1.1126043749761092005         
0.025000000000000001388         0.70000000000000006661         1.113079207803745474          
0.025000000000000001388         0.72500000000000008882         1.113555299979287927          
0.025000000000000001388         0.75                           1.1140327232967808246         
0.025000000000000001388         0.7750000000000000222          1.1145115752044989499         
0.025000000000000001388         0.80000000000000004441         1.1149920001689803684         
0.025000000000000001388         0.82500000000000006661         1.1154741825511762521         
0.025000000000000001388         0.85000000000000008882         1.1159582600880602055         
0.025000000000000001388         0.875                          1.116444186729751209          
0.025000000000000001388         0.9000000000000000222          1.1169311496769080971         
0.025000000000000001388         0.92500000000000004441         1.1174158643603360197         
0.025000000000000001388         0.95000000000000006661         1.1178896899339301196         
0.025000000000000001388         0.97500000000000008882         1.1183378227982538888         
0.050000000000000002776         0                              1.1000000000000000888         
0.050000000000000002776         0.025000000000000001388        1.1008385057351859349         
0.050000000000000002776         0.050000000000000002776        1.101746595726310618          
0.050000000000000002776         0.075000000000000011102        1.1026905531462172227         
0.050000000000000002776         0.10000000000000000555         1.1036444362378461381         
0.050000000000000002776         0.125                          1.1045961860274997601         
0.050000000000000002776         0.1500000000000000222          1.1055429536393623913         
0.050000000000000002776         0.17500000000000001665         1.1064853556391842648         
0.050000000000000002776         0.2000000000000000111          1.1074245325623353065         
0.050000000000000002776         0.22500000000000000555         1.1083613382551047444         
0.050000000000000002776         0.25                           1.1092963592421742902         
0.050000000000000002776         0.2750000000000000222          1.1102300493511814139         
0.050000000000000002776         0.30000000000000004441         1.1111627746196308664         
0.050000000000000002776         0.3250000000000000111          1.1120948434017050577         
0.050000000000000002776         0.35000000000000003331         1.1130265291517611459         
0.050000000000000002776         0.375                          1.1139580840753138258         
0.050000000000000002776         0.4000000000000000222          1.1148897467047742538         
0.050000000000000002776         0.42500000000000004441         1.1158217460111155006         
0.050000000000000002776         0.4500000000000000111          1.1167543035462068612         
0.050000000000000002776         0.47500000000000003331         1.1176876344338084746         
0.050000000000000002776         0.5                            1.1186219476747749635         
0.050000000000000002776         0.5250000000000000222          1.1195574460471049427         
0.050000000000000002776         0.55000000000000004441         1.1204943257903459131         
0.050000000000000002776         0.57500000000000006661         1.1214327762244240549         
0.050000000000000002776         0.60000000000000008882         1.1223729794540702187         
0.050000000000000002776         0.625                          1.1233151103451388675         
0.050000000000000002776         0.6500000000000000222          1.1242593370340252523         
0.050000000000000002776         0.67500000000000004441         1.1252058223749941135         
0.050000000000000002776         0.70000000000000006661         1.126154726992465438          
0.050000000000000002776         0.72500000000000008882         1.1271062150940409641         
0.050000000000000002776         0.75                           1.128060464927354456          
0.050000000000000002776         0.7750000000000000222          1.1290176851042916795         
0.050000000000000002776         0.80000000000000004441         1.129978125292954827          
0.050000000000000002776         0.82500000000000006661         1.1309420367054847656         
0.050000000000000002776         0.85000000000000008882         1.1319095103179295236         
0.050000000000000002776         0.875                          1.1328799264250744017         
0.050000000000000002776         0.9000000000000000222          1.1338503533171386817         
0.050000000000000002776         0.92500000000000004441         1.1348124516583470989         
0.050000000000000002776         0.95000000000000006661         1.135750004271431246          
0.050000000000000002776         0.97500000000000008882         1.1366439031718529318         
0.075000000000000011102         0                              1.1000000000000000888         
0.075000000000000011102         0.025000000000000001388        1.1012805564977488082         
0.075000000000000011102         0.050000000000000002776        1.1026379825815497693         
0.075000000000000011102         0.075000000000000011102        1.1040433923441965725         
0.075000000000000011102         0.10000000000000000555         1.1054677709792213314         
0.075000000000000011102         0.125                          1.1068932492643528409         
0.075000000000000011102         0.1500000000000000222          1.1083131898455602649         
0.075000000000000011102         0.17500000000000001665         1.1097270064344655349         
0.075000000000000011102         0.2000000000000000111          1.1111359264694200544         
0.075000000000000011102         0.22500000000000000555         1.1125411980830628433         
0.075000000000000011102         0.25                           1.1139437497824922207         
0.075000000000000011102         0.2750000000000000222          1.1153442776076596399         
0.075000000000000011102         0.30000000000000004441         1.1167433333830423248         
0.075000000000000011102         0.3250000000000000111          1.1181413788810423693         
0.075000000000000011102         0.35000000000000003331         1.1195388205557494921         
0.075000000000000011102         0.375                          1.1209360306619171599         
0.075000000000000011102         0.4000000000000000222          1.1223333594367705945         
0.075000000000000011102         0.42500000000000004441         1.1237311420350231117         
0.075000000000000011102         0.4500000000000000111          1.1251297024465387597         
0.075000000000000011102         0.47500000000000003331         1.1265293556404005759         
0.075000000000000011102         0.5                            1.1279304086459980283         
0.075000000000000011102         0.5250000000000000222          1.1293331610038868096         
0.075000000000000011102         0.55000000000000004441         1.1307379048734440552         
0.075000000000000011102         0.57500000000000006661         1.1321449250142123777         
0.075000000000000011102         0.60000000000000008882         1.133554498833168056          
0.075000000000000011102         0.625                          1.1349668967137664932         
0.075000000000000011102         0.6500000000000000222          1.1363823829111430186         
0.075000000000000011102         0.67500000000000004441         1.1378012174591489725         
0.075000000000000011102         0.70000000000000006661         1.1392236598375085066         
0.075000000000000011102         0.72500000000000008882         1.1406499756408126078         
0.075000000000000011102         0.75                           1.142080447611463434          
0.075000000000000011102         0.7750000000000000222          1.1435153880192636677         
0.075000000000000011102         0.80000000000000004441         1.1449551259397821035         
0.075000000000000011102         0.82500000000000006661         1.1463999058794711594         
0.075000000000000011102         0.85000000000000008882         1.1478495109997386425         
0.075000000000000011102         0.875                          1.1493021070687261531         
0.075000000000000011102         0.9000000000000000222          1.1507517106046640798         
0.075000000000000011102         0.92500000000000004441         1.1521849548907678873         
0.075000000000000011102         0.95000000000000006661         1.1535814333256946274         
0.075000000000000011102         0.97500000000000008882         1.1549241896183963796         
0.10000000000000000555          0                              1.1000000000000000888         
0.10000000000000000555          0.025000000000000001388        1.1017286043332288337         
0.10000000000000000555          0.050000000000000002776        1.1035371814861869577         
0.10000000000000000555          0.075000000000000011102        1.1054016108773458971         
0.10000000000000000555          0.10000000000000000555         1.1072931640368575135         
0.10000000000000000555          0.125                          1.109190367919183684          
0.10000000000000000555          0.1500000000000000222          1.1110828155021346131         
0.10000000000000000555          0.17500000000000001665         1.1129679865707191588         
0.10000000000000000555          0.2000000000000000111          1.1148467068380971678         
0.10000000000000000555          0.22500000000000000555         1.1167204526878753423         
0.10000000000000000555          0.25                           1.1185904738681025083         
0.10000000000000000555          0.2750000000000000222          1.1204577231475283394         
0.10000000000000000555          0.30000000000000004441         1.1223229482716161609         
0.10000000000000000555          0.3250000000000000111          1.1241867694974563285         
0.10000000000000000555          0.35000000000000003331         1.1260497288534809801         
0.10000000000000000555          0.375                          1.1279123198060958533         
0.10000000000000000555          0.4000000000000000222          1.1297750046125489831         
0.10000000000000000555          0.42500000000000004441         1.1316382244112535016         
0.10000000000000000555          0.4500000000000000111          1.1335024051230846442         
0.10000000000000000555          0.47500000000000003331         1.1353679608980888904         
0.10000000000000000555          0.5                            1.1372352960896581209         
0.10000000000000000555          0.5250000000000000222          1.1391048063412534397         
0.10000000000000000555          0.55000000000000004441         1.1409768791617964645         
0.10000000000000000555          0.57500000000000006661         1.1428518942655370161         
0.10000000000000000555          0.60000000000000008882         1.144730223906909039          
0.10000000000000000555          0.625                          1.1466122334628183754         
0.10000000000000000555          0.6500000000000000222          1.1484982825844760601         
0.10000000000000000555          0.67500000000000004441         1.1503887274155388809         
0.10000000000000000555          0.70000000000000006661         1.1522839246756362286         
0.10000000000000000555          0.72500000000000008882         1.1541842386771670181         
0.10000000000000000555          0.75                           1.1560900509631470978         
0.10000000000000000555          0.7750000000000000222          1.1580017619966875841         
0.10000000000000000555          0.80000000000000004441         1.1599197365592792686         
0.10000000000000000555          0.82500000000000006661         1.1618440885139968977         
0.10000000000000000555          0.85000000000000008882         1.1637739625506517971         
0.10000000000000000555          0.875                          1.1657057427609081035         
0.10000000000000000555          0.9000000000000000222          1.1676300563370978214         
0.10000000000000000555          0.92500000000000004441         1.169529591143932068          
0.10000000000000000555          0.95000000000000006661         1.1713828301891067163         
0.10000000000000000555          0.97500000000000008882         1.1731776306216457062         
0.125                           0                              1.1000000000000000888         
0.125                           0.025000000000000001388        1.1021804744228347328         
0.125                           0.050000000000000002776        1.1044421040785459276         
0.125                           0.075000000000000011102        1.1067646506913346727         
0.125                           0.10000000000000000555         1.1091210517528424795         
0.125                           0.125                          1.1114880474307555769         
0.125                           0.1500000000000000222          1.1138520779813869677         
0.125                           0.17500000000000001665         1.1162083591829450313         
0.125                           0.2000000000000000111          1.1185568659171909456         
0.125                           0.22500000000000000555         1.1208990719459723806         
0.125                           0.25                           1.1232364861032140269         
0.125                           0.2750000000000000222          1.1255703183056524619         
0.125                           0.30000000000000004441         1.1279015207400604481         
0.125                           0.3250000000000000111          1.1302308772337295029         
0.125                           0.35000000000000003331         1.1325590676694958781         
0.125                           0.375                          1.1348867074272681599         
0.125                           0.4000000000000000222          1.1372143706121731199         
0.125                           0.42500000000000004441         1.1395426036903901768         
0.125                           0.4500000000000000111          1.1418719335877764998         
0.125                           0.47500000000000003331         1.1442028725539843403         
0.125                           0.5                            1.1465359210903496301         
0.125                           0.5250000000000000222          1.148871569702228479          
0.125                           0.55000000000000004441         1.1512102999553228688         
0.125                           0.57500000000000006661         1.1535525851711145862         
0.125                           0.60000000000000008882         1.1558988910359471181         
0.125                           0.625                          1.1582496764034808656         
0.125                           0.6500000000000000222          1.1606053946425982648         
0.125                           0.67500000000000004441         1.1629664960530068374         
0.125                           0.70000000000000006661         1.1653334320920611944         
0.125                           0.72500000000000008882         1.1677066618302880396         
0.125                           0.75                           1.1700866569498473702         
0.125                           0.7750000000000000222          1.1724738823728295678         
0.125                           0.80000000000000004441         1.1748686739128639811         
0.125                           0.82500000000000006661         1.17727084677197813           
0.125                           0.85000000000000008882         1.1796785661644968446         
0.125                           0.875                          1.1820860578541689812         
0.125                           0.9000000000000000222          1.1844807299378625753         
0.125                           0.92500000000000004441         1.1868427280587825479         
0.125                           0.95000000000000006661         1.1891515533308496533         
0.125                           0.97500000000000008882         1.1914006479059540133         
0.1500000000000000222           0                              1.1000000000000000888         
0.1500000000000000222           0.025000000000000001388        1.1026350442034260624         
0.1500000000000000222           0.050000000000000002776        1.1053514017709780148         
0.1500000000000000222           0.075000000000000011102        1.1081318978952185983         
0.1500000000000000222           0.10000000000000000555         1.1109515916469512309         
0.1500000000000000222           0.125                          1.1137866817344119763         
0.1500000000000000222           0.1500000000000000222          1.1166212445270744524         
0.1500000000000000222           0.17500000000000001665         1.1194482251311230758         
0.1500000000000000222           0.2000000000000000111          1.1222664152210557464         
0.1500000000000000222           0.22500000000000000555         1.1250770325069028299         
0.1500000000000000222           0.25                           1.1278817439066608497         
0.1500000000000000222           0.2750000000000000222          1.1306819979838473866         
0.1500000000000000222           0.30000000000000004441         1.1334789552563933057         
0.1500000000000000222           0.3250000000000000111          1.1362735676667159446         
0.1500000000000000222           0.35000000000000003331         1.1390666550255152956         
0.1500000000000000222           0.375                          1.141858954943121951          
0.1500000000000000222           0.4000000000000000222          1.144651152683876516          
0.1500000000000000222           0.42500000000000004441         1.1474438987924908684         
0.1500000000000000222           0.4500000000000000111          1.1502378196345632855         
0.1500000000000000222           0.47500000000000003331         1.1530335238115996255         
0.1500000000000000222           0.5                            1.1558316061155962107         
0.1500000000000000222           0.5250000000000000222          1.1586326499859440631         
0.1500000000000000222           0.55000000000000004441         1.1614372290617756001         
0.1500000000000000222           0.57500000000000006661         1.1642459082317302421         
0.1500000000000000222           0.60000000000000008882         1.167059244496592596          
0.1500000000000000222           0.625                          1.1698777879511694788         
0.1500000000000000222           0.6500000000000000222          1.1727020832552628171         
0.1500000000000000222           0.67500000000000004441         1.1755326720977106181         
0.1500000000000000222           0.70000000000000006661         1.178370097144866735          
0.1500000000000000222           0.72500000000000008882         1.1812149064653398867         
0.1500000000000000222           0.75                           1.1840676489142043515         
0.1500000000000000222           0.7750000000000000222          1.1869288190117466275         
0.1500000000000000222           0.80000000000000004441         1.1897986366246235956         
0.1500000000000000222           0.82500000000000006661         1.1926764235314990525         
0.1500000000000000222           0.85000000000000008882         1.195559068549083781          
0.1500000000000000222           0.875                          1.1984384839839916648         
0.1500000000000000222           0.9000000000000000222          1.2012993452250027016         
0.1500000000000000222           0.92500000000000004441         1.2041205758301440909         
0.1500000000000000222           0.95000000000000006661         1.2068839913302062961         
0.1500000000000000222           0.97500000000000008882         1.2095885931553600479         
0.17500000000000001665          0                              1.1000000000000000888         
0.17500000000000001665          0.025000000000000001388        1.1030916653349440715         
0.17500000000000001665          0.050000000000000002776        1.106264186734330579          
0.17500000000000001665          0.075000000000000011102        1.1095028147726271328         
0.17500000000000001665          0.10000000000000000555         1.1127847895444038517         
0.17500000000000001665          0.125                          1.1160865559651029777         
0.17500000000000001665          0.1500000000000000222          1.1193905733357132348         
0.17500000000000001665          0.17500000000000001665         1.1226877124109648776         
0.17500000000000001665          0.2000000000000000111          1.1259753866174908588         
0.17500000000000001665          0.22500000000000000555         1.1292543197673099442         
0.17500000000000001665          0.25                           1.1325262080771025808         
0.17500000000000001665          0.2750000000000000222          1.1357926993197593468         
0.17500000000000001665          0.30000000000000004441         1.1390551586065889023         
0.17500000000000001665          0.3250000000000000111          1.1423147088833649487         
0.17500000000000001665          0.35000000000000003331         1.14557231157645667           
0.17500000000000001665          0.375                          1.1488288264670811767         
0.17500000000000001665          0.4000000000000000222          1.1520850487934464201         
0.17500000000000001665          0.42500000000000004441         1.1553417313534910527         
0.17500000000000001665          0.4500000000000000111          1.1585995977666054824         
0.17500000000000001665          0.47500000000000003331         1.1618593505915035813         
0.17500000000000001665          0.5                            1.1651216763893958994         
0.17500000000000001665          0.5250000000000000222          1.1683872489279147899         
0.17500000000000001665          0.55000000000000004441         1.171656731246288663          
0.17500000000000001665          0.57500000000000006661         1.1749307770576828958         
0.17500000000000001665          0.60000000000000008882         1.1782100318442743081         
0.17500000000000001665          0.625                          1.1814951339741333047         
0.17500000000000001665          0.6500000000000000222          1.1847867162080825132         
0.17500000000000001665          0.67500000000000004441         1.1880854080017666519         
0.17500000000000001665          0.70000000000000006661         1.1913918385082362672         
0.17500000000000001665          0.72500000000000008882         1.1947066366858756226         
0.17500000000000001665          0.75                           1.1980304099040346433         
0.17500000000000001665          0.7750000000000000222          1.2013636344667841804         
0.17500000000000001665          0.80000000000000004441         1.2047063083964721919         
0.17500000000000001665          0.82500000000000006661         1.2080570603778295613         
0.17500000000000001665          0.85000000000000008882         1.211411284707456737          
0.17500000000000001665          0.875                          1.2147586198978388428         
0.17500000000000001665          0.9000000000000000222          1.2180816379973489205         