TITLE = 'DEM DATA | DEM DATA | DEM DATA | DEM DATA'
VARIABLES = 'X' 'Y' 'E' 
ZONE T='SubZone'
I=20 J=20 K=1 ZONETYPE=Ordered
DATAPACKING=POINT
DT=(SINGLE SINGLE SINGLE )
0                               0                              1.1000000000000001            
0                               0.050000000000000003           1.1000000000000001            
0                               0.10000000000000001            1.1000000000000001            
0                               0.15000000000000002            1.1000000000000001            
0                               0.20000000000000001            1.1000000000000001            
0                               0.25                           1.1000000000000001            
0                               0.30000000000000004            1.1000000000000001            
0                               0.35000000000000003            1.1000000000000001            
0                               0.40000000000000002            1.1000000000000001            
0                               0.45000000000000001            1.1000000000000001            
0                               0.5                            1.1000000000000001            
0                               0.55000000000000004            1.1000000000000001            
0                               0.60000000000000009            1.1000000000000001            
0                               0.65000000000000002            1.1000000000000001            
0                               0.70000000000000007            1.1000000000000001            
0                               0.75                           1.1000000000000001            
0                               0.80000000000000004            1.1000000000000001            
0                               0.85000000000000009            1.1000000000000001            
0                               0.90000000000000002            1.1000000000000001            
0                               0.95000000000000007            1.1000000000000001            
0.050000000000000003            0                              1.1000000000000001            
0.050000000000000003            0.050000000000000003           1.1003428987659289            
0.050000000000000003            0.10000000000000001            1.1009856829025915            
0.050000000000000003            0.15000000000000002            1.101685619660121             
0.050000000000000003            0.20000000000000001            1.1023688996952949            
0.050000000000000003            0.25                           1.103032737198093             
0.050000000000000003            0.30000000000000004            1.1036851865960955            
0.050000000000000003            0.35000000000000003            1.1043318806967113            
0.050000000000000003            0.40000000000000002            1.1049758808282162            
0.050000000000000003            0.45000000000000001            1.1056190713364331            
0.050000000000000003            0.5                            1.1062627874579634            
0.050000000000000003            0.55000000000000004            1.1069080430409124            
0.050000000000000003            0.60000000000000009            1.1075556117398977            
0.050000000000000003            0.65000000000000002            1.1082060566573448            
0.050000000000000003            0.70000000000000007            1.1088597374102791            
0.050000000000000003            0.75                           1.1095167173901332            
0.050000000000000003            0.80000000000000004            1.1101757467729658            
0.050000000000000003            0.85000000000000009            1.1108280028252193            
0.050000000000000003            0.90000000000000002            1.111445606896875             
0.050000000000000003            0.95000000000000007            1.1119869815757233            
0.10000000000000001             0                              1.1000000000000001            
0.10000000000000001             0.050000000000000003           1.1007971545579318            
0.10000000000000001             0.10000000000000001            1.1020083364480209            
0.10000000000000001             0.15000000000000002            1.1033684662697809            
0.10000000000000001             0.20000000000000001            1.1047296971986911            
0.10000000000000001             0.25                           1.1060601855713639            
0.10000000000000001             0.30000000000000004            1.1073676308438818            
0.10000000000000001             0.35000000000000003            1.1086622237481252            
0.10000000000000001             0.40000000000000002            1.1099504444800519            
0.10000000000000001             0.45000000000000001            1.1112363965297694            
0.10000000000000001             0.5                            1.1125230142887552            
0.10000000000000001             0.55000000000000004            1.1138125782418402            
0.10000000000000001             0.60000000000000009            1.1151068912741633            
0.10000000000000001             0.65000000000000002            1.1164072895265871            
0.10000000000000001             0.70000000000000007            1.117714466087897             
0.10000000000000001             0.75                           1.1190275820258331            
0.10000000000000001             0.80000000000000004            1.120340226059398             
0.10000000000000001             0.85000000000000009            1.12162860559975              
0.10000000000000001             0.90000000000000002            1.1228404914814054            
0.10000000000000001             0.95000000000000007            1.1239318784114225            
0.15000000000000002             0                              1.1000000000000001            
0.15000000000000002             0.050000000000000003           1.1013067201871221            
0.15000000000000002             0.10000000000000001            1.1030714988969603            
0.15000000000000002             0.15000000000000002            1.1050595640706418            
0.15000000000000002             0.20000000000000001            1.1070862077794736            
0.15000000000000002             0.25                           1.1090828920634979            
0.15000000000000002             0.30000000000000004            1.1110470452695895            
0.15000000000000002             0.35000000000000003            1.1129907901361944            
0.15000000000000002             0.40000000000000002            1.1149239653919494            
0.15000000000000002             0.45000000000000001            1.1168531095327081            
0.15000000000000002             0.5                            1.1187828623239957            
0.15000000000000002             0.55000000000000004            1.1207167914848049            
0.15000000000000002             0.60000000000000009            1.1226576933451307            
0.15000000000000002             0.65000000000000002            1.1246075606895363            
0.15000000000000002             0.70000000000000007            1.1265670246501978            
0.15000000000000002             0.75                           1.1285329854283386            
0.15000000000000002             0.80000000000000004            1.1304908601772032            
0.15000000000000002             0.85000000000000009            1.1324001111415267            
0.15000000000000002             0.90000000000000002            1.1341948010990726            
0.15000000000000002             0.95000000000000007            1.1358479149514094            
0.20000000000000001             0                              1.1000000000000001            
0.20000000000000001             0.050000000000000003           1.101850855404489             
0.20000000000000001             0.10000000000000001            1.1041716968906818            
0.20000000000000001             0.15000000000000002            1.1067667061317337            
0.20000000000000001             0.20000000000000001            1.1094435839018977            
0.20000000000000001             0.25                           1.1121027793633822            
0.20000000000000001             0.30000000000000004            1.1147245300141728            
0.20000000000000001             0.35000000000000003            1.1173187459751941            
0.20000000000000001             0.40000000000000002            1.119897767555506             
0.20000000000000001             0.45000000000000001            1.1224706286362818            
0.20000000000000001             0.5                            1.1250437833773965            
0.20000000000000001             0.55000000000000004            1.1276221267095052            
0.20000000000000001             0.60000000000000009            1.1302094129023252            
0.20000000000000001             0.65000000000000002            1.1328081000655956            
0.20000000000000001             0.70000000000000007            1.1354180971735488            
0.20000000000000001             0.75                           1.1380323121021618            
0.20000000000000001             0.80000000000000004            1.140625635147422             
0.20000000000000001             0.85000000000000009            1.1431424875780349            
0.20000000000000001             0.90000000000000002            1.1455143293539918            
0.20000000000000001             0.95000000000000007            1.1477399256829424            
0.25                            0                              1.1000000000000001            
0.25                            0.050000000000000003           1.1024212356195555            
0.25                            0.10000000000000001            1.1053063487881494            
0.25                            0.15000000000000002            1.1084956432773732            
0.25                            0.20000000000000001            1.1118076324732786            
0.25                            0.25                           1.1151227806535768            
0.25                            0.30000000000000004            1.1184016040639133            
0.25                            0.35000000000000003            1.1216473897363834            
0.25                            0.40000000000000002            1.1248732535888082            
0.25                            0.45000000000000001            1.1280904747846749            
0.25                            0.5                            1.1313073769287441            
0.25                            0.55000000000000004            1.1345302089232667            
0.25                            0.60000000000000009            1.137763608487943             
0.25                            0.65000000000000002            1.1410101809476625            
0.25                            0.70000000000000007            1.1442681714926757            
0.25                            0.75                           1.1475246066283644            
0.25                            0.80000000000000004            1.1507425194281211            
0.25                            0.85000000000000009            1.1538551264253361            
0.25                            0.90000000000000002            1.1568010073390669            
0.25                            0.95000000000000007            1.1596088613739799            
0.30000000000000004             0                              1.1000000000000001            
0.30000000000000004             0.050000000000000003           1.1030139033406394            
0.30000000000000004             0.10000000000000001            1.1064742317999232            
0.30000000000000004             0.15000000000000002            1.1102512240342393            
0.30000000000000004             0.20000000000000001            1.1141845695351222            
0.30000000000000004             0.25                           1.1181468574070765            
0.30000000000000004             0.30000000000000004            1.1220803849993779            
0.30000000000000004             0.35000000000000003            1.1259782488232313            
0.30000000000000004             0.40000000000000002            1.1298519318451694            
0.30000000000000004             0.45000000000000001            1.1337142510283651            
0.30000000000000004             0.5                            1.1375753180674102            
0.30000000000000004             0.55000000000000004            1.1414427214766252            
0.30000000000000004             0.60000000000000009            1.1453218377927907            
0.30000000000000004             0.65000000000000002            1.1492149127331532            
0.30000000000000004             0.70000000000000007            1.1531172678108115            
0.30000000000000004             0.75                           1.1570081362703057            
0.30000000000000004             0.80000000000000004            1.1608384673776515            
0.30000000000000004             0.85000000000000009            1.1645355941820961            
0.30000000000000004             0.90000000000000002            1.1680539008959929            
0.30000000000000004             0.95000000000000007            1.1714538424085852            
0.35000000000000003             0                              1.1000000000000001            
0.35000000000000003             0.050000000000000003           1.1036260187803641            
0.35000000000000003             0.10000000000000001            1.1076742166330091            
0.35000000000000003             0.15000000000000002            1.1120373984460432            
0.35000000000000003             0.20000000000000001            1.1165807419769165            
0.35000000000000003             0.25                           1.1211799422875666            
0.35000000000000003             0.30000000000000004            1.125763747465911             
0.35000000000000003             0.35000000000000003            1.1303131843649596            
0.35000000000000003             0.40000000000000002            1.1348354330144501            
0.35000000000000003             0.45000000000000001            1.1393436187736301            
0.35000000000000003             0.5                            1.1438493159383214            
0.35000000000000003             0.55000000000000004            1.1483613361724989            
0.35000000000000003             0.60000000000000009            1.1528855142539791            
0.35000000000000003             0.65000000000000002            1.1574229408093051            
0.35000000000000003             0.70000000000000007            1.1619643823410237            
0.35000000000000003             0.75                           1.1664795073756224            
0.35000000000000003             0.80000000000000004            1.1709083703133585            
0.35000000000000003             0.85000000000000009            1.1751793694142441            
0.35000000000000003             0.90000000000000002            1.1792706003258939            
0.35000000000000003             0.95000000000000007            1.1832735726795114            
0.40000000000000002             0                              1.1000000000000001            
0.40000000000000002             0.050000000000000003           1.104254553639392             
0.40000000000000002             0.10000000000000001            1.1089040108311574            
0.40000000000000002             0.15000000000000002            1.1138563865196018            
0.40000000000000002             0.20000000000000001            1.1190018716148946            
0.40000000000000002             0.25                           1.1242275828181396            
0.40000000000000002             0.30000000000000004            1.12945535837783              
0.40000000000000002             0.35000000000000003            1.1346544851318741            
0.40000000000000002             0.40000000000000002            1.139825527862113             
0.40000000000000002             0.45000000000000001            1.1449802521163035            
0.40000000000000002             0.5                            1.1501310183589502            
0.40000000000000002             0.55000000000000004            1.1552875333968771            
0.40000000000000002             0.60000000000000009            1.1604555467501494            
0.40000000000000002             0.65000000000000002            1.1656337670223373            
0.40000000000000002             0.70000000000000007            1.1708064251866332            
0.40000000000000002             0.75                           1.1759324882591855            
0.40000000000000002             0.80000000000000004            1.1809445188761596            
0.40000000000000002             0.85000000000000009            1.1857806899722017            
0.40000000000000002             0.90000000000000002            1.1904489350817398            
0.40000000000000002             0.95000000000000007            1.195067410557769             
0.45000000000000001             0                              1.1000000000000001            
0.45000000000000001             0.050000000000000003           1.1048960348249897            
0.45000000000000001             0.10000000000000001            1.1101596126457516            
0.45000000000000001             0.15000000000000002            1.1157077330899356            
0.45000000000000001             0.20000000000000001            1.1214518044309942            
0.45000000000000001             0.25                           1.1272950177052352            
0.45000000000000001             0.30000000000000004            1.1331593163269773            
0.45000000000000001             0.35000000000000003            1.1390047630651436            
0.45000000000000001             0.40000000000000002            1.144824014881872             
0.45000000000000001             0.45000000000000001            1.1506256421879082            
0.45000000000000001             0.5                            1.1564216982974345            
0.45000000000000001             0.55000000000000004            1.162222079335536             
0.45000000000000001             0.60000000000000009            1.1680314529774833            
0.45000000000000001             0.65000000000000002            1.1738444014445006            
0.45000000000000001             0.70000000000000007            1.1796366678488936            
0.45000000000000001             0.75                           1.1853571106936567            
0.45000000000000001             0.80000000000000004            1.1909372409229617            
0.45000000000000001             0.85000000000000009            1.1963344226574044            
0.45000000000000001             0.90000000000000002            1.2015885917551445            
0.45000000000000001             0.95000000000000007            1.2068359418197627            
0.5                             0                              1.1000000000000001            
0.5                             0.050000000000000003           1.1055468580987096            
0.5                             0.10000000000000001            1.11143564058269              
0.5                             0.15000000000000002            1.1175879813173426            
0.5                             0.20000000000000001            1.1239312542322664            
0.5                             0.25                           1.1303856915688029            
0.5                             0.30000000000000004            1.1368790975241718            
0.5                             0.35000000000000003            1.1433662946777936            
0.5                             0.40000000000000002            1.1498321415813682            
0.5                             0.45000000000000001            1.1562804023218163            
0.5                             0.5                            1.1627213174875086            
0.5                             0.55000000000000004            1.1691637020904877            
0.5                             0.60000000000000009            1.1756095496072898            
0.5                             0.65000000000000002            1.1820473023114297            
0.5                             0.70000000000000007            1.1884433343222798            
0.5                             0.75                           1.1947400838320819            
0.5                             0.80000000000000004            1.2008771236566509            
0.5                             0.85000000000000009            1.2068383686607669            
0.5                             0.90000000000000002            1.2126920331568158            
0.5                             0.95000000000000007            1.2185809222876185            
0.55000000000000004             0                              1.1000000000000001            
0.55000000000000004             0.050000000000000003           1.1062037610884536            
0.55000000000000004             0.10000000000000001            1.1127262558795867            
0.55000000000000004             0.15000000000000002            1.1194913261926556            
0.55000000000000004             0.20000000000000001            1.1264373082966657            
0.55000000000000004             0.25                           1.1334997787013352            
0.55000000000000004             0.30000000000000004            1.140615901722402             
0.55000000000000004             0.35000000000000003            1.147739551718066             
0.55000000000000004             0.40000000000000002            1.1548491615445871            
0.55000000000000004             0.45000000000000001            1.1619426059363787            
0.55000000000000004             0.5                            1.169026483106258             
0.55000000000000004             0.55000000000000004            1.1761066228459818            
0.55000000000000004             0.60000000000000009            1.1831803342081773            
0.55000000000000004             0.65000000000000002            1.1902285103411159            
0.55000000000000004             0.70000000000000007            1.1972098572960823            
0.55000000000000004             0.75                           1.20406752149873              
0.55000000000000004             0.80000000000000004            1.2107584147708577            
0.55000000000000004             0.85000000000000009            1.2172949740092447            
0.55000000000000004             0.90000000000000002            1.2237643106844673            
0.55000000000000004             0.95000000000000007            1.2303046926540604            
0.60000000000000009             0                              1.1000000000000001            
0.60000000000000009             0.050000000000000003           1.1068641563054051            
0.60000000000000009             0.10000000000000001            1.1140261604727597            
0.60000000000000009             0.15000000000000002            1.121411025793118             
0.60000000000000009             0.20000000000000001            1.1289642132700357            
0.60000000000000009             0.25                           1.1366337255473451            
0.60000000000000009             0.30000000000000004            1.1443673095845035            
0.60000000000000009             0.35000000000000003            1.1521214621639022            
0.60000000000000009             0.40000000000000002            1.1598703148027438            
0.60000000000000009             0.45000000000000001            1.1676053854671031            
0.60000000000000009             0.5                            1.175327697856144             
0.60000000000000009             0.55000000000000004            1.1830378466335278            
0.60000000000000009             0.60000000000000009            1.1907267583091934            
0.60000000000000009             0.65000000000000002            1.1983683002397751            
0.60000000000000009             0.70000000000000007            1.2059184923453443            
0.60000000000000009             0.75                           1.2133298358087476            
0.60000000000000009             0.80000000000000004            1.2205821222846382            
0.60000000000000009             0.85000000000000009            1.2277114541452951            
0.60000000000000009             0.90000000000000002            1.2348118505769587            
0.60000000000000009             0.95000000000000007            1.2420093846672573            
0.65000000000000002             0                              1.1000000000000001            
0.65000000000000002             0.050000000000000003           1.1075262115517768            
0.65000000000000002             0.10000000000000001            1.1153312298532132            
0.65000000000000002             0.15000000000000002            1.1233409056631782            
0.65000000000000002             0.20000000000000001            1.1315052051311556            
0.65000000000000002             0.25                           1.139781490141119             
0.65000000000000002             0.30000000000000004            1.1481276349401426            
0.65000000000000002             0.35000000000000003            1.1565051052230912            
0.65000000000000002             0.40000000000000002            1.1648860517973005            
0.65000000000000002             0.45000000000000001            1.1732558629004426            
0.65000000000000002             0.5                            1.1816084399248221            
0.65000000000000002             0.55000000000000004            1.1899373199915202            
0.65000000000000002             0.60000000000000009            1.1982267430328               
0.65000000000000002             0.65000000000000002            1.2064466553429847            
0.65000000000000002             0.70000000000000007            1.2145571811413243            
0.65000000000000002             0.75                           1.2225266418193077            
0.65000000000000002             0.80000000000000004            1.230356887909106             
0.65000000000000002             0.85000000000000009            1.2380980565233697            
0.65000000000000002             0.90000000000000002            1.2458407851139119            
0.65000000000000002             0.95000000000000007            1.2536962807595775            
0.70000000000000007             0                              1.1000000000000001            
0.70000000000000007             0.050000000000000003           1.108188736193811             
0.70000000000000007             0.10000000000000001            1.1166386360749478            
0.70000000000000007             0.15000000000000002            1.1252762948613437            
0.70000000000000007             0.20000000000000001            1.1340544216127062            
0.70000000000000007             0.25                           1.1429369656977524            
0.70000000000000007             0.30000000000000004            1.1518904334149576            
0.70000000000000007             0.35000000000000003            1.1608823099939047            
0.70000000000000007             0.40000000000000002            1.1698849023367899            
0.70000000000000007             0.45000000000000001            1.1788785451469266            
0.70000000000000007             0.5                            1.1878496540647212            
0.70000000000000007             0.55000000000000004            1.1967843366640765            
0.70000000000000007             0.60000000000000009            1.2056617530598943            
0.70000000000000007             0.65000000000000002            1.214452466010941             
0.70000000000000007             0.70000000000000007            1.22312618835779              
0.70000000000000007             0.75                           1.2316683891567755            
0.70000000000000007             0.80000000000000004            1.2400966867163963            
0.70000000000000007             0.85000000000000009            1.2484652252712003            
0.70000000000000007             0.90000000000000002            1.2568555754719788            
0.70000000000000007             0.95000000000000007            1.2653655473411376            
0.75                            0                              1.1000000000000001            
0.75                            0.050000000000000003           1.1088510297472014            
0.75                            0.10000000000000001            1.1179466292677576            
0.75                            0.15000000000000002            1.1272141684249977            
0.75                            0.20000000000000001            1.1366079124689459            
0.75                            0.25                           1.1460960358854428            
0.75                            0.30000000000000004            1.1556516237162067            
0.75                            0.35000000000000003            1.1652480708194723            
0.75                            0.40000000000000002            1.174859525639768             
0.75                            0.45000000000000001            1.1844632159010231            
0.75                            0.5                            1.1940394546372817            
0.75                            0.55000000000000004            1.2035684737424488            
0.75                            0.60000000000000009            1.2130272076567372            