TITLE = 'DEM DATA | DEM DATA | DEM DATA | DEM DATA'
VARIABLES = 'X' 'Y' 'E' 
ZONE T='SubZone'
I=20 J=20 K=1 ZONETYPE=Ordered
DATAPACKING=POINT
DT=(SINGLE SINGLE SINGLE )
0                               0                              1.1000000000000001            
0                               0.050000000000000003           1.1000000000000001            
0                               0.10000000000000001            1.1000000000000001            
0                               0.15000000000000002            1.1000000000000001            
0                               0.20000000000000001            1.1000000000000001            
0                               0.25                           1.1000000000000001            
0                               0.30000000000000004            1.1000000000000001            
0                               0.35000000000000003            1.1000000000000001            
0                               0.40000000000000002            1.1000000000000001            
0                               0.45000000000000001            1.1000000000000001            
0                               0.5                            1.1000000000000001            
0                               0.55000000000000004            1.1000000000000001            
0                               0.60000000000000009            1.1000000000000001            
0                               0.65000000000000002            1.1000000000000001            
0                               0.70000000000000007            1.1000000000000001            
0                               0.75                           1.1000000000000001            
0                               0.80000000000000004            1.1000000000000001            
0                               0.85000000000000009            1.1000000000000001            
0                               0.90000000000000002            1.1000000000000001            
0                               0.95000000000000007            1.1000000000000001            
0.050000000000000003            0                              1.1000000000000001            
0.050000000000000003            0.050000000000000003           1.100936686648829             
0.050000000000000003            0.10000000000000001            1.1021998049486483            
0.050000000000000003            0.15000000000000002            1.1035210076644835            
0.050000000000000003            0.20000000000000001            1.1048200383797906            
0.050000000000000003            0.25                           1.1060949181330506            
0.050000000000000003            0.30000000000000004            1.107355270011859             
0.050000000000000003            0.35000000000000003            1.1086082970631859            
0.050000000000000003            0.40000000000000002            1.1098585422785383            
0.050000000000000003            0.45000000000000001            1.1111093553696587            
0.050000000000000003            0.5                            1.1123635142039949            
0.050000000000000003            0.55000000000000004            1.1136234025925318            
0.050000000000000003            0.60000000000000009            1.1148910398490686            
0.050000000000000003            0.65000000000000002            1.1161680904439908            
0.050000000000000003            0.70000000000000007            1.1174559293211823            
0.050000000000000003            0.75                           1.1187558025976214            
0.050000000000000003            0.80000000000000004            1.1200685994371153            
0.050000000000000003            0.85000000000000009            1.12138997264315              
0.050000000000000003            0.90000000000000002            1.1226935675605314            
0.050000000000000003            0.95000000000000007            1.1239116900594686            
0.10000000000000001             0                              1.1000000000000001            
0.10000000000000001             0.050000000000000003           1.1019938585926008            
0.10000000000000001             0.10000000000000001            1.1044380179517133            
0.10000000000000001             0.15000000000000002            1.1070373904991735            
0.10000000000000001             0.20000000000000001            1.1096297974958482            
0.10000000000000001             0.25                           1.112182588292798             
0.10000000000000001             0.30000000000000004            1.1147064068654342            
0.10000000000000001             0.35000000000000003            1.1172145072429813            
0.10000000000000001             0.40000000000000002            1.1197161190792055            
0.10000000000000001             0.45000000000000001            1.1222179280730769            
0.10000000000000001             0.5                            1.1247253751848483            
0.10000000000000001             0.55000000000000004            1.1272431957931686            
0.10000000000000001             0.60000000000000009            1.1297756064156528            
0.10000000000000001             0.65000000000000002            1.1323263617394486            
0.10000000000000001             0.70000000000000007            1.1348987549582481            
0.10000000000000001             0.75                           1.1374952711946964            
0.10000000000000001             0.80000000000000004            1.1401146077216322            
0.10000000000000001             0.85000000000000009            1.1427387515287535            
0.10000000000000001             0.90000000000000002            1.1453075013299412            
0.10000000000000001             0.95000000000000007            1.1477230897847972            
0.15000000000000002             0                              1.1000000000000001            
0.15000000000000002             0.050000000000000003           1.1031088369292557            
0.15000000000000002             0.10000000000000001            1.1067171855393627            
0.15000000000000002             0.15000000000000002            1.1105602193947683            
0.15000000000000002             0.20000000000000001            1.1144329241546802            
0.15000000000000002             0.25                           1.1182630386466139            
0.15000000000000002             0.30000000000000004            1.1220515493016121            
0.15000000000000002             0.35000000000000003            1.1258151131317886            
0.15000000000000002             0.40000000000000002            1.1295676662074912            
0.15000000000000002             0.45000000000000001            1.1333195213372893            
0.15000000000000002             0.5                            1.1370789578718707            
0.15000000000000002             0.55000000000000004            1.1408531377776954            
0.15000000000000002             0.60000000000000009            1.1446484699319455            
0.15000000000000002             0.65000000000000002            1.1484707085919574            
0.15000000000000002             0.70000000000000007            1.1523247519946724            
0.15000000000000002             0.75                           1.1562130743291184            
0.15000000000000002             0.80000000000000004            1.1601284423606728            
0.15000000000000002             0.85000000000000009            1.1640341160197734            
0.15000000000000002             0.90000000000000002            1.1678434498582597            
0.15000000000000002             0.95000000000000007            1.1714606796655884            
0.20000000000000001             0                              1.1000000000000001            
0.20000000000000001             0.050000000000000003           1.1042572720448223            
0.20000000000000001             0.10000000000000001            1.1090312535945737            
0.20000000000000001             0.15000000000000002            1.1140962201956965            
0.20000000000000001             0.20000000000000001            1.1192340310775075            
0.20000000000000001             0.25                           1.1243378333880898            
0.20000000000000001             0.30000000000000004            1.1293915003322834            
0.20000000000000001             0.35000000000000003            1.1344109425995654            
0.20000000000000001             0.40000000000000002            1.1394140535067985            
0.20000000000000001             0.45000000000000001            1.1444148919507311            
0.20000000000000001             0.5                            1.1494247066098873            
0.20000000000000001             0.55000000000000004            1.154453140697735             
0.20000000000000001             0.60000000000000009            1.1595087898937328            
0.20000000000000001             0.65000000000000002            1.164599288646843             
0.20000000000000001             0.70000000000000007            1.1697306077712661            
0.20000000000000001             0.75                           1.17490344505943              
0.20000000000000001             0.80000000000000004            1.1801012489434757            
0.20000000000000001             0.85000000000000009            1.1852680683610144            
0.20000000000000001             0.90000000000000002            1.1903029254131869            
0.20000000000000001             0.95000000000000007            1.1951290381703112            
0.25                            0                              1.1000000000000001            
0.25                            0.050000000000000003           1.1054284234126908            
0.25                            0.10000000000000001            1.1113745273723961            
0.25                            0.15000000000000002            1.1176488865136867            
0.25                            0.20000000000000001            1.1240376581708516            
0.25                            0.25                           1.1304092439000255            
0.25                            0.30000000000000004            1.1367273574196612            
0.25                            0.35000000000000003            1.1430028522673052            
0.25                            0.40000000000000002            1.1492560566009518            
0.25                            0.45000000000000001            1.1555046320601405            
0.25                            0.5                            1.1617628876553681            
0.25                            0.55000000000000004            1.1680429903428331            
0.25                            0.60000000000000009            1.1743556791048564            
0.25                            0.65000000000000002            1.180710232240701             
0.25                            0.70000000000000007            1.1871128786177187            
0.25                            0.75                           1.1935605634245505            
0.25                            0.80000000000000004            1.2000252803854179            
0.25                            0.85000000000000009            1.2064347387440331            
0.25                            0.90000000000000002            1.2126847535258465            
0.25                            0.95000000000000007            1.2187243801805403            
0.30000000000000004             0                              1.1000000000000001            
0.30000000000000004             0.050000000000000003           1.106616960035341             
0.30000000000000004             0.10000000000000001            1.1137429912518109            
0.30000000000000004             0.15000000000000002            1.1212200285807743            
0.30000000000000004             0.20000000000000001            1.1288478156898982            
0.30000000000000004             0.25                           1.1364799972252002            
0.30000000000000004             0.30000000000000004            1.1440605667414028            
0.30000000000000004             0.35000000000000003            1.1515918377157826            
0.30000000000000004             0.40000000000000002            1.1590945270021238            
0.30000000000000004             0.45000000000000001            1.1665894072817045            
0.30000000000000004             0.5                            1.1740938437110482            
0.30000000000000004             0.55000000000000004            1.1816225409565106            
0.30000000000000004             0.60000000000000009            1.1891882848705213            
0.30000000000000004             0.65000000000000002            1.1968016189052575            
0.30000000000000004             0.70000000000000007            1.2044679845129624            
0.30000000000000004             0.75                           1.2121787406775868            
0.30000000000000004             0.80000000000000004            1.2198937797769305            
0.30000000000000004             0.85000000000000009            1.227528997659481             
0.30000000000000004             0.90000000000000002            1.2349853472142753            
0.30000000000000004             0.95000000000000007            1.2422391881659036            
0.35000000000000003             0                              1.1000000000000001            
0.35000000000000003             0.050000000000000003           1.1078199911803963            
0.35000000000000003             0.10000000000000001            1.1161340641578466            
0.35000000000000003             0.15000000000000002            1.1248107278978412            
0.35000000000000003             0.20000000000000001            1.1336679355361869            
0.35000000000000003             0.25                           1.1425530410059968            
0.35000000000000003             0.30000000000000004            1.1513928957669048            
0.35000000000000003             0.35000000000000003            1.1601790432697223            
0.35000000000000003             0.40000000000000002            1.1689303695676061            
0.35000000000000003             0.45000000000000001            1.1776699137002358            
0.35000000000000003             0.5                            1.1864179431716249            
0.35000000000000003             0.55000000000000004            1.1951916596236114            
0.35000000000000003             0.60000000000000009            1.2040057259081862            
0.35000000000000003             0.65000000000000002            1.2128714215834637            
0.35000000000000003             0.70000000000000007            1.2217922300874793            
0.35000000000000003             0.75                           1.2307525058293667            
0.35000000000000003             0.80000000000000004            1.2397006762815461            
0.35000000000000003             0.85000000000000009            1.248545708337369             
0.35000000000000003             0.90000000000000002            1.2571992589759127            
0.35000000000000003             0.95000000000000007            1.2656639627446933            
0.40000000000000002             0                              1.1000000000000001            
0.40000000000000002             0.050000000000000003           1.1090358708012027            
0.40000000000000002             0.10000000000000001            1.1185461985810765            
0.40000000000000002             0.15000000000000002            1.1284218315147219            
0.40000000000000002             0.20000000000000001            1.1385009829277946            
0.40000000000000002             0.25                           1.148631384140119             
0.40000000000000002             0.30000000000000004            1.1587263768223297            
0.40000000000000002             0.35000000000000003            1.1687657675894996            
0.40000000000000002             0.40000000000000002            1.1787645345446787            
0.40000000000000002             0.45000000000000001            1.1887468514281396            
0.40000000000000002             0.5                            1.1987355440884406            
0.40000000000000002             0.55000000000000004            1.2087501815845201            
0.40000000000000002             0.60000000000000009            1.2188070399384507            
0.40000000000000002             0.65000000000000002            1.2289174711140578            
0.40000000000000002             0.70000000000000007            1.2390818267364649            
0.40000000000000002             0.75                           1.2492765971854445            
0.40000000000000002             0.80000000000000004            1.2594402473176021            
0.40000000000000002             0.85000000000000009            1.2694793155667459            
0.40000000000000002             0.90000000000000002            1.2793195571219989            
0.40000000000000002             0.95000000000000007            1.2889879507677411            
0.45000000000000001             0                              1.1000000000000001            
0.45000000000000001             0.050000000000000003           1.1102636481796506            
0.45000000000000001             0.10000000000000001            1.1209785672565982            
0.45000000000000001             0.15000000000000002            1.1320541905965298            
0.45000000000000001             0.20000000000000001            1.1433496067389144            
0.45000000000000001             0.25                           1.1547180177257983            
0.45000000000000001             0.30000000000000004            1.1660632465597522            
0.45000000000000001             0.35000000000000003            1.1773534623319055            
0.45000000000000001             0.40000000000000002            1.1885980168877597            
0.45000000000000001             0.45000000000000001            1.1998209064849743            
0.45000000000000001             0.5                            1.2110469634961341            
0.45000000000000001             0.55000000000000004            1.2222978701751464            
0.45000000000000001             0.60000000000000009            1.2335911407434015            
0.45000000000000001             0.65000000000000002            1.24493743472858              
0.45000000000000001             0.70000000000000007            1.2563329034524915            
0.45000000000000001             0.75                           1.2677458665142451            
0.45000000000000001             0.80000000000000004            1.2791067882412366            
0.45000000000000001             0.85000000000000009            1.2903235768642061            
0.45000000000000001             0.90000000000000002            1.3013380265300847            
0.45000000000000001             0.95000000000000007            1.3121994788386038            
0.5                             0                              1.1000000000000001            
0.5                             0.050000000000000003           1.1115027625535345            
0.5                             0.10000000000000001            1.1234308201100534            
0.5                             0.15000000000000002            1.1357087545544335            
0.5                             0.20000000000000001            1.1482162759093337            
0.5                             0.25                           1.1608158989597182            
0.5                             0.30000000000000004            1.173405899593825             
0.5                             0.35000000000000003            1.1859437285579115            
0.5                             0.40000000000000002            1.1984318613154663            
0.5                             0.45000000000000001            1.2108927412547712            
0.5                             0.5                            1.2233524531965942            
0.5                             0.55000000000000004            1.2358343826436804            
0.5                             0.60000000000000009            1.2483567836308767            
0.5                             0.65000000000000002            1.2609287945669896            
0.5                             0.70000000000000007            1.273541478934507             
0.5                             0.75                           1.2861551167968048            
0.5                             0.80000000000000004            1.2986942893839966            
0.5                             0.85000000000000009            1.3110713515544663            
0.5                             0.90000000000000002            1.3232452720308601            
0.5                             0.95000000000000007            1.3352861364664843            
0.55000000000000004             0                              1.1000000000000001            
0.55000000000000004             0.050000000000000003           1.1127528264694218            
0.55000000000000004             0.10000000000000001            1.1259028573159064            
0.55000000000000004             0.15000000000000002            1.1393865570580266            
0.55000000000000004             0.20000000000000001            1.1531033691002901            
0.55000000000000004             0.25                           1.166927969874868             
0.55000000000000004             0.30000000000000004            1.18075686562315              
0.55000000000000004             0.35000000000000003            1.1945383171879573            
0.55000000000000004             0.40000000000000002            1.2082671728942678            
0.55000000000000004             0.45000000000000001            1.2219629929507883            
0.55000000000000004             0.5                            1.2356521820070463            
0.55000000000000004             0.55000000000000004            1.2493592410412357            
0.55000000000000004             0.60000000000000009            1.2631025333485801            
0.55000000000000004             0.65000000000000002            1.2768888134335117            
0.55000000000000004             0.70000000000000007            1.290703375302334             
0.55000000000000004             0.75                           1.3044988775285042            
0.55000000000000004             0.80000000000000004            1.3181961196178973            
0.55000000000000004             0.85000000000000009            1.3317144347081717            
0.55000000000000004             0.90000000000000002            1.3450308049659236            
0.55000000000000004             0.95000000000000007            1.3582349213453926            
0.60000000000000009             0                              1.1000000000000001            
0.60000000000000009             0.050000000000000003           1.1140134419849059            
0.60000000000000009             0.10000000000000001            1.1283945842518364            
0.60000000000000009             0.15000000000000002            1.1430885962158972            
0.60000000000000009             0.20000000000000001            1.1580131841707262            
0.60000000000000009             0.25                           1.1730571743840172            
0.60000000000000009             0.30000000000000004            1.1881188066600366            
0.60000000000000009             0.35000000000000003            1.2031391352952108            
0.60000000000000009             0.40000000000000002            1.2181051348125307            
0.60000000000000009             0.45000000000000001            1.2330322795047644            
0.60000000000000009             0.5                            1.2479462232603977            
0.60000000000000009             0.55000000000000004            1.2628718038968163            
0.60000000000000009             0.60000000000000009            1.277826719872972             
0.60000000000000009             0.65000000000000002            1.2928144729904829            
0.60000000000000009             0.70000000000000007            1.3078140553570115            
0.60000000000000009             0.75                           1.3227711214526394            
0.60000000000000009             0.80000000000000004            1.3376047317079864            
0.60000000000000009             0.85000000000000009            1.3522434637803675            
0.60000000000000009             0.90000000000000002            1.3666831799698331            
0.60000000000000009             0.95000000000000007            1.3810324037259585            
0.65000000000000002             0                              1.1000000000000001            
0.65000000000000002             0.050000000000000003           1.1152840446136061            
0.65000000000000002             0.10000000000000001            1.1309056500434578            
0.65000000000000002             0.15000000000000002            1.1468156123197577            
0.65000000000000002             0.20000000000000001            1.1629478348980093            
0.65000000000000002             0.25                           1.1792064265551889            
0.65000000000000002             0.30000000000000004            1.1954945099323528            
0.65000000000000002             0.35000000000000003            1.2117482578899901            
0.65000000000000002             0.40000000000000002            1.2279470303198272            
0.65000000000000002             0.45000000000000001            1.2441012116545884            
0.65000000000000002             0.5                            1.2602345431060888            
0.65000000000000002             0.55000000000000004            1.2763712267697986            
0.65000000000000002             0.60000000000000009            1.292527373333759             
0.65000000000000002             0.65000000000000002            1.3087023370228019            
0.65000000000000002             0.70000000000000007            1.3248683808382753            
0.65000000000000002             0.75                           1.3409649404841573            
0.65000000000000002             0.80000000000000004            1.3569114260503308            
0.65000000000000002             0.85000000000000009            1.3726479431638257            
0.65000000000000002             0.90000000000000002            1.3881902280876026            
0.65000000000000002             0.95000000000000007            1.4036649352541173            
0.70000000000000007             0                              1.1000000000000001            
0.70000000000000007             0.050000000000000003           1.1165638080666191            
0.70000000000000007             0.10000000000000001            1.1334352154677347            
0.70000000000000007             0.15000000000000002            1.1505677946140467            
0.70000000000000007             0.20000000000000001            1.1679090175976063            
0.70000000000000007             0.25                           1.1853784774289762            
0.70000000000000007             0.30000000000000004            1.2028868334620424            
0.70000000000000007             0.35000000000000003            1.2203679255556461            
0.70000000000000007             0.40000000000000002            1.2377942592924187            
0.70000000000000007             0.45000000000000001            1.255170402170448             
0.70000000000000007             0.5                            1.2725169798657103            
0.70000000000000007             0.55000000000000004            1.2898564016786389            
0.70000000000000007             0.60000000000000009            1.3072020974187448            
0.70000000000000007             0.65000000000000002            1.3245483165657632            
0.70000000000000007             0.70000000000000007            1.3418602804552973            
0.70000000000000007             0.75                           1.3590722167024061            
0.70000000000000007             0.80000000000000004            1.3761062278513407            
0.70000000000000007             0.85000000000000009            1.3929164326581851            
0.70000000000000007             0.90000000000000002            1.4095394125459086            
0.70000000000000007             0.95000000000000007            1.4261189140565012            
0.75                            0                              1.1000000000000001            
0.75                            0.050000000000000003           1.1178517185332075            
0.75                            0.10000000000000001            1.1359818792231902            
0.75                            0.15000000000000002            1.1543445111989743            
0.75                            0.20000000000000001            1.1728976707931864            
0.75                            0.25                           1.1915756369656962            
0.75                            0.30000000000000004            1.2102985410960976            
0.75                            0.35000000000000003            1.2290004768750211            
0.75                            0.40000000000000002            1.2476483214995271            
0.75                            0.45000000000000001            1.2662404459985421            
0.75                            0.5                            1.2847931850356029            
0.75                            0.55000000000000004            1.3033258219842103            
0.75                            0.60000000000000009            1.3218478197866124            