TITLE = 'DEM DATA | DEM DATA | DEM DATA | DEM DATA'
VARIABLES = 'X' 'Y' 'E' 
ZONE T='SubZone'
I=80 J=80 K=1 ZONETYPE=Ordered
DATAPACKING=POINT
DT=(SINGLE SINGLE SINGLE )
0                               0                              1.1000000000000000888         
0                               0.012500000000000000694        1.1000000000000000888         
0                               0.025000000000000001388        1.1000000000000000888         
0                               0.037500000000000005551        1.1000000000000000888         
0                               0.050000000000000002776        1.1000000000000000888         
0                               0.0625                         1.1000000000000000888         
0                               0.075000000000000011102        1.1000000000000000888         
0                               0.087500000000000008327        1.1000000000000000888         
0                               0.10000000000000000555         1.1000000000000000888         
0                               0.11250000000000000278         1.1000000000000000888         
0                               0.125                          1.1000000000000000888         
0                               0.1375000000000000111          1.1000000000000000888         
0                               0.1500000000000000222          1.1000000000000000888         
0                               0.16250000000000000555         1.1000000000000000888         
0                               0.17500000000000001665         1.1000000000000000888         
0                               0.1875                         1.1000000000000000888         
0                               0.2000000000000000111          1.1000000000000000888         
0                               0.2125000000000000222          1.1000000000000000888         
0                               0.22500000000000000555         1.1000000000000000888         
0                               0.23750000000000001665         1.1000000000000000888         
0                               0.25                           1.1000000000000000888         
0                               0.2625000000000000111          1.1000000000000000888         
0                               0.2750000000000000222          1.1000000000000000888         
0                               0.28750000000000003331         1.1000000000000000888         
0                               0.30000000000000004441         1.1000000000000000888         
0                               0.3125                         1.1000000000000000888         
0                               0.3250000000000000111          1.1000000000000000888         
0                               0.3375000000000000222          1.1000000000000000888         
0                               0.35000000000000003331         1.1000000000000000888         
0                               0.36250000000000004441         1.1000000000000000888         
0                               0.375                          1.1000000000000000888         
0                               0.3875000000000000111          1.1000000000000000888         
0                               0.4000000000000000222          1.1000000000000000888         
0                               0.41250000000000003331         1.1000000000000000888         
0                               0.42500000000000004441         1.1000000000000000888         
0                               0.4375                         1.1000000000000000888         
0                               0.4500000000000000111          1.1000000000000000888         
0                               0.4625000000000000222          1.1000000000000000888         
0                               0.47500000000000003331         1.1000000000000000888         
0                               0.48750000000000004441         1.1000000000000000888         
0                               0.5                            1.1000000000000000888         
0                               0.51250000000000006661         1.1000000000000000888         
0                               0.5250000000000000222          1.1000000000000000888         
0                               0.5374999999999999778          1.1000000000000000888         
0                               0.55000000000000004441         1.1000000000000000888         
0                               0.5625                         1.1000000000000000888         
0                               0.57500000000000006661         1.1000000000000000888         
0                               0.5875000000000000222          1.1000000000000000888         
0                               0.60000000000000008882         1.1000000000000000888         
0                               0.61250000000000004441         1.1000000000000000888         
0                               0.625                          1.1000000000000000888         
0                               0.63750000000000006661         1.1000000000000000888         
0                               0.6500000000000000222          1.1000000000000000888         
0                               0.66250000000000008882         1.1000000000000000888         
0                               0.67500000000000004441         1.1000000000000000888         
0                               0.6875                         1.1000000000000000888         
0                               0.70000000000000006661         1.1000000000000000888         
0                               0.7125000000000000222          1.1000000000000000888         
0                               0.72500000000000008882         1.1000000000000000888         
0                               0.73750000000000004441         1.1000000000000000888         
0                               0.75                           1.1000000000000000888         
0                               0.76250000000000006661         1.1000000000000000888         
0                               0.7750000000000000222          1.1000000000000000888         
0                               0.78750000000000008882         1.1000000000000000888         
0                               0.80000000000000004441         1.1000000000000000888         
0                               0.8125                         1.1000000000000000888         
0                               0.82500000000000006661         1.1000000000000000888         
0                               0.8375000000000000222          1.1000000000000000888         
0                               0.85000000000000008882         1.1000000000000000888         
0                               0.86250000000000004441         1.1000000000000000888         
0                               0.875                          1.1000000000000000888         
0                               0.88750000000000006661         1.1000000000000000888         
0                               0.9000000000000000222          1.1000000000000000888         
0                               0.91250000000000008882         1.1000000000000000888         
0                               0.92500000000000004441         1.1000000000000000888         
0                               0.9375                         1.1000000000000000888         
0                               0.95000000000000006661         1.1000000000000000888         
0                               0.9625000000000000222          1.1000000000000000888         
0                               0.97500000000000008882         1.1000000000000000888         
0                               0.98750000000000004441         1.1000000000000000888         
0.012500000000000000694         0                              1.1000000000000000888         
0.012500000000000000694         0.012500000000000000694        1.1001446940634063143         
0.012500000000000000694         0.025000000000000001388        1.1002969358878404993         
0.012500000000000000694         0.037500000000000005551        1.1004529594560554795         
0.012500000000000000694         0.050000000000000002776        1.1006104645067609216         
0.012500000000000000694         0.0625                         1.1007682457035554702         
0.012500000000000000694         0.075000000000000011102        1.100925815511754946          
0.012500000000000000694         0.087500000000000008327        1.1010830581804780248         
0.012500000000000000694         0.10000000000000000555         1.1012400014451924068         
0.012500000000000000694         0.11250000000000000278         1.1013967048928487991         
0.012500000000000000694         0.125                          1.1015532209184859536         
0.012500000000000000694         0.1375000000000000111          1.1017095878062046488         
0.012500000000000000694         0.1500000000000000222          1.1018658324906529522         
0.012500000000000000694         0.16250000000000000555         1.1020219743596848527         
0.012500000000000000694         0.17500000000000001665         1.1021780280001187702         
0.012500000000000000694         0.1875                         1.1023340048531751201         
0.012500000000000000694         0.2000000000000000111          1.1024899137248291847         
0.012500000000000000694         0.2125000000000000222          1.1026457581353505955         
0.012500000000000000694         0.22500000000000000555         1.1028015413777891851         
0.012500000000000000694         0.23750000000000001665         1.1029572700674710184         
0.012500000000000000694         0.25                           1.1031129506444437016         
0.012500000000000000694         0.2625000000000000111          1.1032685890608215917         
0.012500000000000000694         0.2750000000000000222          1.1034241909085329425         
0.012500000000000000694         0.28750000000000003331         1.1035797615421891749         
0.012500000000000000694         0.30000000000000004441         1.1037353061672323662         
0.012500000000000000694         0.3125                         1.1038908299013154846         
0.012500000000000000694         0.3250000000000000111          1.1040463378159008911         
0.012500000000000000694         0.3375000000000000222          1.1042018349635143171         
0.012500000000000000694         0.35000000000000003331         1.1043573263945183349         
0.012500000000000000694         0.36250000000000004441         1.1045128171653595395         
0.012500000000000000694         0.375                          1.1046683123408720384         
0.012500000000000000694         0.3875000000000000111          1.1048238169913349171         
0.012500000000000000694         0.4000000000000000222          1.1049793361858619711         
0.012500000000000000694         0.41250000000000003331         1.1051348749827825113         
0.012500000000000000694         0.42500000000000004441         1.1052904384174500052         
0.012500000000000000694         0.4375                         1.1054460314884979599         
0.012500000000000000694         0.4500000000000000111          1.1056016591426580664         
0.012500000000000000694         0.4625000000000000222          1.105757326258743678          
0.012500000000000000694         0.47500000000000003331         1.1059130376313672794         
0.012500000000000000694         0.48750000000000004441         1.1060687979541123926         
0.012500000000000000694         0.5                            1.1062246118036604958         
0.012500000000000000694         0.51250000000000006661         1.1063804836236474927         
0.012500000000000000694         0.5250000000000000222          1.1065364177105754262         
0.012500000000000000694         0.5374999999999999778          1.1066924181994290954         
0.012500000000000000694         0.55000000000000004441         1.1068484890523488939         
0.012500000000000000694         0.5625                         1.1070046340480745872         
0.012500000000000000694         0.57500000000000006661         1.1071608567738824291         
0.012500000000000000694         0.5875000000000000222          1.1073171606200318262         
0.012500000000000000694         0.60000000000000008882         1.1074735487765894337         
0.012500000000000000694         0.61250000000000004441         1.1076300242338223967         
0.012500000000000000694         0.625                          1.1077865897858327759         
0.012500000000000000694         0.63750000000000006661         1.1079432480383044624         
0.012500000000000000694         0.6500000000000000222          1.1081000014209736459         
0.012500000000000000694         0.66250000000000008882         1.1082568522055349369         
0.012500000000000000694         0.67500000000000004441         1.1084138025299830055         
0.012500000000000000694         0.6875                         1.1085708544312791179         
0.012500000000000000694         0.70000000000000006661         1.1087280098874747747         
0.012500000000000000694         0.7125000000000000222          1.108885270873041895          
0.012500000000000000694         0.72500000000000008882         1.1090426394305494817         
0.012500000000000000694         0.73750000000000004441         1.109200117764812088          
0.012500000000000000694         0.75                           1.1093577083680685735         
0.012500000000000000694         0.76250000000000006661         1.1095154141881489185         
0.012500000000000000694         0.7750000000000000222          1.1096732388623664622         
0.012500000000000000694         0.78750000000000008882         1.1098311870708692517         
0.012500000000000000694         0.80000000000000004441         1.1099892653011380617         
0.012500000000000000694         0.8125                         1.1101474844783685292         
0.012500000000000000694         0.82500000000000006661         1.1103058552541993365         
0.012500000000000000694         0.8375000000000000222          1.1104643843800556802         
0.012500000000000000694         0.85000000000000008882         1.1106230786351640738         
0.012500000000000000694         0.86250000000000004441         1.1107819456268381852         
0.012500000000000000694         0.875                          1.110940993994305348          
0.012500000000000000694         0.88750000000000006661         1.1111002328230132896         
0.012500000000000000694         0.9000000000000000222          1.111259667896993486          
0.012500000000000000694         0.91250000000000008882         1.1114192877668502835         
0.012500000000000000694         0.92500000000000004441         1.1115790236973743799         
0.012500000000000000694         0.9375                         1.1117386575108663127         
0.012500000000000000694         0.95000000000000006661         1.1118976565768716736         
0.012500000000000000694         0.9625000000000000222          1.1120549685173783949         
0.012500000000000000694         0.97500000000000008882         1.1122089322258861266         
0.012500000000000000694         0.98750000000000004441         1.1123575977537805137         
0.025000000000000001388         0                              1.1000000000000000888         
0.025000000000000001388         0.012500000000000000694        1.100293661232459419          
0.025000000000000001388         0.025000000000000001388        1.1005974877145741075         
0.025000000000000001388         0.037500000000000005551        1.1009079289913297206         
0.025000000000000001388         0.050000000000000002776        1.1012217297981425901         
0.025000000000000001388         0.0625                         1.1015366708790783612         
0.025000000000000001388         0.075000000000000011102        1.1018515835185249685         
0.025000000000000001388         0.087500000000000008327        1.1021660252129530377         
0.025000000000000001388         0.10000000000000000555         1.1024799270342084956         
0.025000000000000001388         0.11250000000000000278         1.1027933568467711556         
0.025000000000000001388         0.125                          1.1031064053125578805         
0.025000000000000001388         0.1375000000000000111          1.1034191480623363191         
0.025000000000000001388         0.1500000000000000222          1.1037316408736619344         
0.025000000000000001388         0.16250000000000000555         1.104043924230724949          
0.025000000000000001388         0.17500000000000001665         1.1043560283740718742         
0.025000000000000001388         0.1875                         1.1046679767275999762         
0.025000000000000001388         0.2000000000000000111          1.1049797873762059464         
0.025000000000000001388         0.2125000000000000222          1.1052914730884142447         
0.025000000000000001388         0.22500000000000000555         1.1056030450074680882         
0.025000000000000001388         0.23750000000000001665         1.1059145155075718048         
0.025000000000000001388         0.25                           1.1062258967921243524         
0.025000000000000001388         0.2625000000000000111          1.1065372003041904492         
0.025000000000000001388         0.2750000000000000222          1.1068484368117226246         
0.025000000000000001388         0.28750000000000003331         1.1071596165791626198         
0.025000000000000001388         0.30000000000000004441         1.1074707495051479            
0.025000000000000001388         0.3125                         1.1077818452226870782         
0.025000000000000001388         0.3250000000000000111          1.1080929131701451329         
0.025000000000000001388         0.3375000000000000222          1.1084039626415396196         
0.025000000000000001388         0.35000000000000003331         1.1087150028218175635         
0.025000000000000001388         0.36250000000000004441         1.1090260428103635437         
0.025000000000000001388         0.375                          1.1093370916366172008         
0.025000000000000001388         0.3875000000000000111          1.109648158268957463          
0.025000000000000001388         0.4000000000000000222          1.1099592516191671976         
0.025000000000000001388         0.41250000000000003331         1.1102703805431197726         
0.025000000000000001388         0.42500000000000004441         1.1105815538386225594         
0.025000000000000001388         0.4375                         1.1108927802414074737         
0.025000000000000001388         0.4500000000000000111          1.1112040684192867612         
0.025000000000000001388         0.4625000000000000222          1.1115154269650884267         
0.025000000000000001388         0.47500000000000003331         1.1118268643888358227         
0.025000000000000001388         0.48750000000000004441         1.1121383891090519391         
0.025000000000000001388         0.5                            1.1124500094437115294         
0.025000000000000001388         0.51250000000000006661         1.1127617336004251847         
0.025000000000000001388         0.5250000000000000222          1.1130735696675175816         
0.025000000000000001388         0.5374999999999999778          1.1133855256039759674         
0.025000000000000001388         0.55000000000000004441         1.1136976092300983066         
0.025000000000000001388         0.5625                         1.1140098282190209478         
0.025000000000000001388         0.57500000000000006661         1.1143221900884154874         
0.025000000000000001388         0.5875000000000000222          1.1146347021936480193         
0.025000000000000001388         0.60000000000000008882         1.1149473717222417868         
0.025000000000000001388         0.61250000000000004441         1.1152602056906117944         
0.025000000000000001388         0.625                          1.1155732109433906807         
0.025000000000000001388         0.63750000000000006661         1.1158863941562198185         
0.025000000000000001388         0.6500000000000000222          1.1161997618432897283         
0.025000000000000001388         0.66250000000000008882         1.1165133203703270226         
0.025000000000000001388         0.67500000000000004441         1.1168270759753597954         
0.025000000000000001388         0.6875                         1.1171410347992627443         
0.025000000000000001388         0.70000000000000006661         1.1174552029284154919         
0.025000000000000001388         0.7125000000000000222          1.1177695864543852888         
0.025000000000000001388         0.72500000000000008882         1.1180841915550918664         
0.025000000000000001388         0.73750000000000004441         1.1183990246055681705         
0.025000000000000001388         0.75                           1.1187140923291292172         
0.025000000000000001388         0.76250000000000006661         1.1190294020057540703         
0.025000000000000001388         0.7750000000000000222          1.1193449617698603138         
0.025000000000000001388         0.78750000000000008882         1.1196607810826044727         
0.025000000000000001388         0.80000000000000004441         1.1199768715104860828         
0.025000000000000001388         0.8125                         1.1202932472984761247         
0.025000000000000001388         0.82500000000000006661         1.1206099231438626518         
0.025000000000000001388         0.8375000000000000222          1.1209269117125819637         
0.025000000000000001388         0.85000000000000008882         1.1212442255652121936         
0.025000000000000001388         0.86250000000000004441         1.1215618781595464437         
0.025000000000000001388         0.875                          1.1218798832792806763         
0.025000000000000001388         0.88750000000000006661         1.1221982507269485652         
0.025000000000000001388         0.9000000000000000222          1.1225169705304489653         
0.025000000000000001388         0.91250000000000008882         1.122835967576329308          
0.025000000000000001388         0.92500000000000004441         1.1231549960474302985         
0.025000000000000001388         0.9375                         1.1234734452213237521         
0.025000000000000001388         0.95000000000000006661         1.1237900814095622692         
0.025000000000000001388         0.9625000000000000222          1.1241028856290242732         
0.025000000000000001388         0.97500000000000008882         1.1244093166474120604         
0.025000000000000001388         0.98750000000000004441         1.1247073566184122573         
0.037500000000000005551         0                              1.1000000000000000888         
0.037500000000000005551         0.012500000000000000694        1.1004446104529328476         
0.037500000000000005551         0.025000000000000001388        1.1009004677285383345         
0.037500000000000005551         0.037500000000000005551        1.1013647140813509484         
0.037500000000000005551         0.050000000000000002776        1.1018339815883553268         
0.037500000000000005551         0.0625                         1.1023054764669930616         
0.037500000000000005551         0.075000000000000011102        1.1027774184976271155         
0.037500000000000005551         0.087500000000000008327        1.1032489455682168433         
0.037500000000000005551         0.10000000000000000555         1.1037197869099901748         
0.037500000000000005551         0.11250000000000000278         1.1041899540586601614         
0.037500000000000005551         0.125                          1.1046595484678323196         
0.037500000000000005551         0.1375000000000000111          1.105128675454813747          
0.037500000000000005551         0.1500000000000000222          1.1055974192523312372         
0.037500000000000005551         0.16250000000000000555         1.106065842646868802          
0.037500000000000005551         0.17500000000000001665         1.1065339925874926319         
0.037500000000000005551         0.1875                         1.1070019051576878155         
0.037500000000000005551         0.2000000000000000111          1.1074696084743302915         
0.037500000000000005551         0.2125000000000000222          1.107937124419372088          
0.037500000000000005551         0.22500000000000000555         1.1084044719089072295         
0.037500000000000005551         0.23750000000000001665         1.1088716694466820289         
0.037500000000000005551         0.25                           1.1093387349072698633         
0.037500000000000005551         0.2625000000000000111          1.109805685126560304          
0.037500000000000005551         0.2750000000000000222          1.110272535964270002          
0.037500000000000005551         0.28750000000000003331         1.1107393025148142307         
0.037500000000000005551         0.30000000000000004441         1.1112059992976075495         
0.037500000000000005551         0.3125                         1.1116726404013341778         
0.037500000000000005551         0.3250000000000000111          1.1121392395893581195         
0.037500000000000005551         0.3375000000000000222          1.1126058103768354801         
0.037500000000000005551         0.35000000000000003331         1.113072366086676368          
0.037500000000000005551         0.36250000000000004441         1.1135389198895564444         
0.037500000000000005551         0.375                          1.1140054848327298753         
0.037500000000000005551         0.3875000000000000111          1.1144720738593232312         
0.037500000000000005551         0.4000000000000000222          1.1149386998211445743         
0.037500000000000005551         0.41250000000000003331         1.1154053754862205405         
0.037500000000000005551         0.42500000000000004441         1.1158721135417752901         
0.037500000000000005551         0.4375                         1.1163389265947460949         
0.037500000000000005551         0.4500000000000000111          1.1168058271690464167         
0.037500000000000005551         0.4625000000000000222          1.1172728277013783682         
0.037500000000000005551         0.47500000000000003331         1.1177399405356143181         
0.037500000000000005551         0.48750000000000004441         1.1182071779156421698         
0.037500000000000005551         0.5                            1.1186745519783676261         
0.037500000000000005551         0.51250000000000006661         1.1191420747451403805         
0.037500000000000005551         0.5250000000000000222          1.1196097581139716759         
0.037500000000000005551         0.5374999999999999778          1.120077613851536924          
0.037500000000000005551         0.55000000000000004441         1.1205456535855118361         
0.037500000000000005551         0.5625                         1.121013888797197211          
0.037500000000000005551         0.57500000000000006661         1.1214823308161367965         
0.037500000000000005551         0.5875000000000000222          1.1219509908149534194         
0.037500000000000005551         0.60000000000000008882         1.1224198798064830562         
0.037500000000000005551         0.61250000000000004441         1.1228890086430156625         
0.037500000000000005551         0.625                          1.1233583880184279113         
0.037500000000000005551         0.63750000000000006661         1.1238280284738328962         
0.037500000000000005551         0.6500000000000000222          1.1242979404082351635         
0.037500000000000005551         0.66250000000000008882         1.1247681340948874062         
0.037500000000000005551         0.67500000000000004441         1.125238619705478893          
0.037500000000000005551         0.6875                         1.1257094073447533322         
0.037500000000000005551         0.70000000000000006661         1.1261805070979442611         
0.037500000000000005551         0.7125000000000000222          1.1266519290963892264         
0.037500000000000005551         0.72500000000000008882         1.1271236836061939712         
0.037500000000000005551         0.73750000000000004441         1.1275957811495529448         
0.037500000000000005551         0.75                           1.1280682326708386665         
0.037500000000000005551         0.76250000000000006661         1.1285410497678245445         
0.037500000000000005551         0.7750000000000000222          1.1290142450261986262         
0.037500000000000005551         0.78750000000000008882         1.1294878324996375785         
0.037500000000000005551         0.80000000000000004441         1.1299618280303216356         
0.037500000000000005551         0.8125                         1.1304362492147883579         
0.037500000000000005551         0.82500000000000006661         1.1309111145713319768         
0.037500000000000005551         0.8375000000000000222          1.1313864414491312527         
0.037500000000000005551         0.85000000000000008882         1.1318622468939618653         
0.037500000000000005551         0.86250000000000004441         1.1323385478003409332         
0.037500000000000005551         0.875                          1.1328153576380322054         
0.037500000000000005551         0.88750000000000006661         1.1332926735996806666         
0.037500000000000005551         0.9000000000000000222          1.1337704389195351062         
0.037500000000000005551         0.91250000000000008882         1.13424845239437877           
0.037500000000000005551         0.92500000000000004441         1.1347261929795442459         
0.037500000000000005551         0.9375                         1.135202561930426679          
0.037500000000000005551         0.95000000000000006661         1.1356756521290449768         