TITLE = 'DEM DATA | DEM DATA | DEM DATA | DEM DATA'
VARIABLES = 'X' 'Y' 'E' 
ZONE T='SubZone'
I=80 J=80 K=1 ZONETYPE=Ordered
DATAPACKING=POINT
DT=(SINGLE SINGLE SINGLE )
0                               0                              1.1000000000000000888         
0                               0.012500000000000000694        1.1000000000000000888         
0                               0.025000000000000001388        1.1000000000000000888         
0                               0.037500000000000005551        1.1000000000000000888         
0                               0.050000000000000002776        1.1000000000000000888         
0                               0.0625                         1.1000000000000000888         
0                               0.075000000000000011102        1.1000000000000000888         
0                               0.087500000000000008327        1.1000000000000000888         
0                               0.10000000000000000555         1.1000000000000000888         
0                               0.11250000000000000278         1.1000000000000000888         
0                               0.125                          1.1000000000000000888         
0                               0.1375000000000000111          1.1000000000000000888         
0                               0.1500000000000000222          1.1000000000000000888         
0                               0.16250000000000000555         1.1000000000000000888         
0                               0.17500000000000001665         1.1000000000000000888         
0                               0.1875                         1.1000000000000000888         
0                               0.2000000000000000111          1.1000000000000000888         
0                               0.2125000000000000222          1.1000000000000000888         
0                               0.22500000000000000555         1.1000000000000000888         
0                               0.23750000000000001665         1.1000000000000000888         
0                               0.25                           1.1000000000000000888         
0                               0.2625000000000000111          1.1000000000000000888         
0                               0.2750000000000000222          1.1000000000000000888         
0                               0.28750000000000003331         1.1000000000000000888         
0                               0.30000000000000004441         1.1000000000000000888         
0                               0.3125                         1.1000000000000000888         
0                               0.3250000000000000111          1.1000000000000000888         
0                               0.3375000000000000222          1.1000000000000000888         
0                               0.35000000000000003331         1.1000000000000000888         
0                               0.36250000000000004441         1.1000000000000000888         
0                               0.375                          1.1000000000000000888         
0                               0.3875000000000000111          1.1000000000000000888         
0                               0.4000000000000000222          1.1000000000000000888         
0                               0.41250000000000003331         1.1000000000000000888         
0                               0.42500000000000004441         1.1000000000000000888         
0                               0.4375                         1.1000000000000000888         
0                               0.4500000000000000111          1.1000000000000000888         
0                               0.4625000000000000222          1.1000000000000000888         
0                               0.47500000000000003331         1.1000000000000000888         
0                               0.48750000000000004441         1.1000000000000000888         
0                               0.5                            1.1000000000000000888         
0                               0.51250000000000006661         1.1000000000000000888         
0                               0.5250000000000000222          1.1000000000000000888         
0                               0.5374999999999999778          1.1000000000000000888         
0                               0.55000000000000004441         1.1000000000000000888         
0                               0.5625                         1.1000000000000000888         
0                               0.57500000000000006661         1.1000000000000000888         
0                               0.5875000000000000222          1.1000000000000000888         
0                               0.60000000000000008882         1.1000000000000000888         
0                               0.61250000000000004441         1.1000000000000000888         
0                               0.625                          1.1000000000000000888         
0                               0.63750000000000006661         1.1000000000000000888         
0                               0.6500000000000000222          1.1000000000000000888         
0                               0.66250000000000008882         1.1000000000000000888         
0                               0.67500000000000004441         1.1000000000000000888         
0                               0.6875                         1.1000000000000000888         
0                               0.70000000000000006661         1.1000000000000000888         
0                               0.7125000000000000222          1.1000000000000000888         
0                               0.72500000000000008882         1.1000000000000000888         
0                               0.73750000000000004441         1.1000000000000000888         
0                               0.75                           1.1000000000000000888         
0                               0.76250000000000006661         1.1000000000000000888         
0                               0.7750000000000000222          1.1000000000000000888         
0                               0.78750000000000008882         1.1000000000000000888         
0                               0.80000000000000004441         1.1000000000000000888         
0                               0.8125                         1.1000000000000000888         
0                               0.82500000000000006661         1.1000000000000000888         
0                               0.8375000000000000222          1.1000000000000000888         
0                               0.85000000000000008882         1.1000000000000000888         
0                               0.86250000000000004441         1.1000000000000000888         
0                               0.875                          1.1000000000000000888         
0                               0.88750000000000006661         1.1000000000000000888         
0                               0.9000000000000000222          1.1000000000000000888         
0                               0.91250000000000008882         1.1000000000000000888         
0                               0.92500000000000004441         1.1000000000000000888         
0                               0.9375                         1.1000000000000000888         
0                               0.95000000000000006661         1.1000000000000000888         
0                               0.9625000000000000222          1.1000000000000000888         
0                               0.97500000000000008882         1.1000000000000000888         
0                               0.98750000000000004441         1.1000000000000000888         
0.012500000000000000694         0                              1.1000000000000000888         
0.012500000000000000694         0.012500000000000000694        1.1000686320127062157         
0.012500000000000000694         0.025000000000000001388        1.1001435828533321359         
0.012500000000000000694         0.037500000000000005551        1.1002216916333324992         
0.012500000000000000694         0.050000000000000002776        1.1003010431512412204         
0.012500000000000000694         0.0625                         1.100380639732864152          
0.012500000000000000694         0.075000000000000011102        1.1004600801475168392         
0.012500000000000000694         0.087500000000000008327        1.1005392702139364935         
0.012500000000000000694         0.10000000000000000555         1.1006182334119196664         
0.012500000000000000694         0.11250000000000000278         1.1006970188084999052         
0.012500000000000000694         0.125                          1.1007756690921497444         
0.012500000000000000694         0.1375000000000000111          1.1008542150586084762         
0.012500000000000000694         0.1500000000000000222          1.1009326780012680391         
0.012500000000000000694         0.16250000000000000555         1.1010110729073037117         
0.012500000000000000694         0.17500000000000001665         1.1010894107563595767         
0.012500000000000000694         0.1875                         1.1011676999280306521         
0.012500000000000000694         0.2000000000000000111          1.1012459468704407506         
0.012500000000000000694         0.2125000000000000222          1.1013241554431789648         
0.012500000000000000694         0.22500000000000000555         1.1014023292628840611         
0.012500000000000000694         0.23750000000000001665         1.1014804729210714296         
0.012500000000000000694         0.25                           1.1015585905454592375         
0.012500000000000000694         0.2625000000000000111          1.101636685766345547          
0.012500000000000000694         0.2750000000000000222          1.1017147618451075264         
0.012500000000000000694         0.28750000000000003331         1.1017928217792014589         
0.012500000000000000694         0.30000000000000004441         1.1018708683773812407         
0.012500000000000000694         0.3125                         1.1019489043136074802         
0.012500000000000000694         0.3250000000000000111          1.1020269321653035632         
0.012500000000000000694         0.3375000000000000222          1.1021049544405143727         
0.012500000000000000694         0.35000000000000003331         1.1021829735969268516         
0.012500000000000000694         0.36250000000000004441         1.1022609920545853868         
0.012500000000000000694         0.375                          1.1023390122041190065         
0.012500000000000000694         0.3875000000000000111          1.1024170364113019538         
0.012500000000000000694         0.4000000000000000222          1.1024950670187652069         
0.012500000000000000694         0.41250000000000003331         1.10257310634576422           
0.012500000000000000694         0.42500000000000004441         1.1026511566861052493         
0.012500000000000000694         0.4375                         1.1027292203049752217         
0.012500000000000000694         0.4500000000000000111          1.1028072994347881686         
0.012500000000000000694         0.4625000000000000222          1.1028853962702154234         
0.012500000000000000694         0.47500000000000003331         1.1029635129634203228         
0.012500000000000000694         0.48750000000000004441         1.1030416516181160702         
0.012500000000000000694         0.5                            1.1031198142848699373         
0.012500000000000000694         0.51250000000000006661         1.1031980029555834566         
0.012500000000000000694         0.5250000000000000222          1.1032762195590881671         
0.012500000000000000694         0.5374999999999999778          1.1033544659568375046         
0.012500000000000000694         0.55000000000000004441         1.1034327439397646486         
0.012500000000000000694         0.5625                         1.1035110552257543226         
0.012500000000000000694         0.57500000000000006661         1.1035894014584266554         
0.012500000000000000694         0.5875000000000000222          1.1036677842073236988         
0.012500000000000000694         0.60000000000000008882         1.1037462049691761923         
0.012500000000000000694         0.61250000000000004441         1.1038246651716256963         
0.012500000000000000694         0.625                          1.1039031661786562477         
0.012500000000000000694         0.63750000000000006661         1.1039817092985579894         
0.012500000000000000694         0.6500000000000000222          1.1040602957950880203         
0.012500000000000000694         0.66250000000000008882         1.1041389269020254194         
0.012500000000000000694         0.67500000000000004441         1.104217603842349904          
0.012500000000000000694         0.6875                         1.104296327853124815          
0.012500000000000000694         0.70000000000000006661         1.1043751002172590425         
0.012500000000000000694         0.7125000000000000222          1.1044539223050808818         
0.012500000000000000694         0.72500000000000008882         1.1045327956280486248         
0.012500000000000000694         0.73750000000000004441         1.1046117219097522089         
0.012500000000000000694         0.75                           1.1046907031802886134         
0.012500000000000000694         0.76250000000000006661         1.1047697419037127986         
0.012500000000000000694         0.7750000000000000222          1.1048488411490535732         
0.012500000000000000694         0.78750000000000008882         1.1049280047794096671         
0.012500000000000000694         0.80000000000000004441         1.105007237220621219          
0.012500000000000000694         0.8125                         1.1050865398963953812         
0.012500000000000000694         0.82500000000000006661         1.1051659118597150222         
0.012500000000000000694         0.8375000000000000222          1.1052453540974027657         
0.012500000000000000694         0.85000000000000008882         1.1053248677147331502         
0.012500000000000000694         0.86250000000000004441         1.1054044534264295674         
0.012500000000000000694         0.875                          1.1054841109994979487         
0.012500000000000000694         0.88750000000000006661         1.1055638376354459673         
0.012500000000000000694         0.9000000000000000222          1.1056436229376311875         
0.012500000000000000694         0.91250000000000008882         1.1057234344151791738         
0.012500000000000000694         0.92500000000000004441         1.1058031810737061207         
0.012500000000000000694         0.9375                         1.1058826374264276726         
0.012500000000000000694         0.95000000000000006661         1.105961321104413253          
0.012500000000000000694         0.9625000000000000222          1.1060383711946746299         
0.012500000000000000694         0.97500000000000008882         1.10611258977718796           
0.012500000000000000694         0.98750000000000004441         1.106182951020450389          
0.025000000000000001388         0                              1.1000000000000000888         
0.025000000000000001388         0.012500000000000000694        1.1001408302717796683         
0.025000000000000001388         0.025000000000000001388        1.1002901797157624841         
0.025000000000000001388         0.037500000000000005551        1.1004450601125892462         
0.025000000000000001388         0.050000000000000002776        1.1006027589345792617         
0.025000000000000001388         0.0625                         1.1007614371734899539         
0.025000000000000001388         0.075000000000000011102        1.1009201304412465916         
0.025000000000000001388         0.087500000000000008327        1.1010784752213691462         
0.025000000000000001388         0.10000000000000000555         1.1012364155129774623         
0.025000000000000001388         0.11250000000000000278         1.1013940070608494448         
0.025000000000000001388         0.125                          1.1015513235785616697         
0.025000000000000001388         0.1375000000000000111          1.1017084258738205627         
0.025000000000000001388         0.1500000000000000222          1.1018653580951305315         
0.025000000000000001388         0.16250000000000000555         1.1020221516188111188         
0.025000000000000001388         0.17500000000000001665         1.1021788292912073626         
0.025000000000000001388         0.1875                         1.1023354083659917535         
0.025000000000000001388         0.2000000000000000111          1.1024919021071781788         
0.025000000000000001388         0.2125000000000000222          1.1026483205051591518         
0.025000000000000001388         0.22500000000000000555         1.1028046721825492948         
0.025000000000000001388         0.23750000000000001665         1.1029609655911378763         
0.025000000000000001388         0.25                           1.1031172084987308502         
0.025000000000000001388         0.2625000000000000111          1.1032734078766477381         
0.025000000000000001388         0.2750000000000000222          1.1034295700524376915         
0.025000000000000001388         0.28750000000000003331         1.1035857008689056169         
0.025000000000000001388         0.30000000000000004441         1.103741805805227516          
0.025000000000000001388         0.3125                         1.1038978900658191762         
0.025000000000000001388         0.3250000000000000111          1.1040539586452031706         
0.025000000000000001388         0.3375000000000000222          1.1042100163754697828         
0.025000000000000001388         0.35000000000000003331         1.1043660679614566433         
0.025000000000000001388         0.36250000000000004441         1.1045221180059991983         
0.025000000000000001388         0.375                          1.1046781710286743827         
0.025000000000000001388         0.3875000000000000111          1.1048342314788759388         
0.025000000000000001388         0.4000000000000000222          1.1049903037448511878         
0.025000000000000001388         0.41250000000000003331         1.1051463921599438134         
0.025000000000000001388         0.42500000000000004441         1.1053025010060431033         
0.025000000000000001388         0.4375                         1.1054586345153587512         
0.025000000000000001388         0.4500000000000000111          1.1056147968709166829         
0.025000000000000001388         0.4625000000000000222          1.105770992205559633          
0.025000000000000001388         0.47500000000000003331         1.105927224600701253          
0.025000000000000001388         0.48750000000000004441         1.1060834980837057628         
0.025000000000000001388         0.5                            1.1062398166256732779         
0.025000000000000001388         0.51250000000000006661         1.1063961841380500761         
0.025000000000000001388         0.5250000000000000222          1.1065526044703619668         
0.025000000000000001388         0.5374999999999999778          1.1067090814063567095         
0.025000000000000001388         0.55000000000000004441         1.1068656186618395232         
0.025000000000000001388         0.5625                         1.1070222198820578452         
0.025000000000000001388         0.57500000000000006661         1.1071788886398170604         
0.025000000000000001388         0.5875000000000000222          1.1073356284346107525         
0.025000000000000001388         0.60000000000000008882         1.107492442692509016          
0.025000000000000001388         0.61250000000000004441         1.1076493347675535617         
0.025000000000000001388         0.625                          1.1078063079453490669         
0.025000000000000001388         0.63750000000000006661         1.1079633654482285987         
0.025000000000000001388         0.6500000000000000222          1.1081205104442253262         
0.025000000000000001388         0.66250000000000008882         1.1082777460591395347         
0.025000000000000001388         0.67500000000000004441         1.1084350753938838618         
0.025000000000000001388         0.6875                         1.1085925015478488298         
0.025000000000000001388         0.70000000000000006661         1.1087500276505226626         
0.025000000000000001388         0.7125000000000000222          1.1089076569033999853         
0.025000000000000001388         0.72500000000000008882         1.1090653926362421533         
0.025000000000000001388         0.73750000000000004441         1.1092232383817315355         
0.025000000000000001388         0.75                           1.1093811979760199726         
0.025000000000000001388         0.76250000000000006661         1.1095392756913191601         
0.025000000000000001388         0.7750000000000000222          1.1096974763918632245         
0.025000000000000001388         0.78750000000000008882         1.1098558055734963901         
0.025000000000000001388         0.80000000000000004441         1.1100142685793048525         
0.025000000000000001388         0.8125                         1.1101728683293135003         
0.025000000000000001388         0.82500000000000006661         1.1103316059858274745         
0.025000000000000001388         0.8375000000000000222          1.1104904833179454204         
0.025000000000000001388         0.85000000000000008882         1.1106495019569408989         
0.025000000000000001388         0.86250000000000004441         1.1108086622913035946         
0.025000000000000001388         0.875                          1.1109679614085581356         
0.025000000000000001388         0.88750000000000006661         1.1111273872095335236         
0.025000000000000001388         0.9000000000000000222          1.1112869017839310803         
0.025000000000000001388         0.91250000000000008882         1.1114463996329986273         
0.025000000000000001388         0.92500000000000004441         1.111605618890775693          
0.025000000000000001388         0.9375                         1.1117639911736656444         
0.025000000000000001388         0.95000000000000006661         1.1119204660255022077         
0.025000000000000001388         0.9625000000000000222          1.1120734576705899599         
0.025000000000000001388         0.97500000000000008882         1.1122211904419481154         
0.025000000000000001388         0.98750000000000004441         1.1123627244201323983         
0.037500000000000005551         0                              1.1000000000000000888         
0.037500000000000005551         0.012500000000000000694        1.1002146812719832969         
0.037500000000000005551         0.025000000000000001388        1.100438800705938025          
0.037500000000000005551         0.037500000000000005551        1.1006699435216069638         
0.037500000000000005551         0.050000000000000002776        1.1009053017900056748         
0.037500000000000005551         0.0625                         1.1011425596899568902         
0.037500000000000005551         0.075000000000000011102        1.1013802469096836134         
0.037500000000000005551         0.087500000000000008327        1.1016176534302288825         
0.037500000000000005551         0.10000000000000000555         1.101854556704517929          
0.037500000000000005551         0.11250000000000000278         1.1020909657738684473         
0.037500000000000005551         0.125                          1.1023269627039795626         
0.037500000000000005551         0.1375000000000000111          1.1025626319987458235         
0.037500000000000005551         0.1500000000000000222          1.102798040344529662          
0.037500000000000005551         0.16250000000000000555         1.1030332365096287006         
0.037500000000000005551         0.17500000000000001665         1.103268256099213529          
0.037500000000000005551         0.1875                         1.1035031258254055508         
0.037500000000000005551         0.2000000000000000111          1.1037378662566166287         
0.037500000000000005551         0.2125000000000000222          1.1039724935659653848         
0.037500000000000005551         0.22500000000000000555         1.104207021460005933          
0.037500000000000005551         0.23750000000000001665         1.1044414624666436531         
0.037500000000000005551         0.25                           1.1046758280096240501         
0.037500000000000005551         0.2625000000000000111          1.1049101284145079749         
0.037500000000000005551         0.2750000000000000222          1.1051443730913763641         
0.037500000000000005551         0.28750000000000003331         1.1053785707430454632         
0.037500000000000005551         0.30000000000000004441         1.1056127295326028115         
0.037500000000000005551         0.3125                         1.105846857209127565          
0.037500000000000005551         0.3250000000000000111          1.1060809612005879643         
0.037500000000000005551         0.3375000000000000222          1.1063150486831077046         
0.037500000000000005551         0.35000000000000003331         1.1065491266326656916         
0.037500000000000005551         0.36250000000000004441         1.1067832018636261093         
0.037500000000000005551         0.375                          1.107017281057903757          
0.037500000000000005551         0.3875000000000000111          1.1072513707862277066         
0.037500000000000005551         0.4000000000000000222          1.1074854775240376981         
0.037500000000000005551         0.41250000000000003331         1.1077196076629212129         
0.037500000000000005551         0.42500000000000004441         1.1079537675184600864         
0.037500000000000005551         0.4375                         1.1081879633356783721         
0.037500000000000005551         0.4500000000000000111          1.1084222012921551848         
0.037500000000000005551         0.4625000000000000222          1.1086564874994067065         
0.037500000000000005551         0.47500000000000003331         1.1088908280037335086         
0.037500000000000005551         0.48750000000000004441         1.1091252287850332792         
0.037500000000000005551         0.5                            1.1093596957559674898         
0.037500000000000005551         0.51250000000000006661         1.1095942347600329381         
0.037500000000000005551         0.5250000000000000222          1.1098288515694147982         
0.037500000000000005551         0.5374999999999999778          1.1100635518831412085         
0.037500000000000005551         0.55000000000000004441         1.1102983413250615552         
0.037500000000000005551         0.5625                         1.1105332254421151905         
0.037500000000000005551         0.57500000000000006661         1.1107682097031861268         
0.037500000000000005551         0.5875000000000000222          1.1110032994989360589         
0.037500000000000005551         0.60000000000000008882         1.1112385001420177488         
0.037500000000000005551         0.61250000000000004441         1.1114738168691142839         
0.037500000000000005551         0.625                          1.111709254844621686          
0.037500000000000005551         0.63750000000000006661         1.111944819166264864          
0.037500000000000005551         0.6500000000000000222          1.1121805148737688995         
0.037500000000000005551         0.66250000000000008882         1.112416346960939828          
0.037500000000000005551         0.67500000000000004441         1.1126523203924090222         
0.037500000000000005551         0.6875                         1.1128884401265204396         
0.037500000000000005551         0.70000000000000006661         1.1131247111458886234         
0.037500000000000005551         0.7125000000000000222          1.1133611384985104831         
0.037500000000000005551         0.72500000000000008882         1.1135977273526220799         
0.037500000000000005551         0.73750000000000004441         1.1138344830700797061         
0.037500000000000005551         0.75                           1.1140714113045806499         
0.037500000000000005551         0.76250000000000006661         1.1143085181234821945         
0.037500000000000005551         0.7750000000000000222          1.1145458101114908978         
0.037500000000000005551         0.78750000000000008882         1.1147832942223483421         
0.037500000000000005551         0.80000000000000004441         1.1150209768138237276         
0.037500000000000005551         0.8125                         1.1152588621557961712         
0.037500000000000005551         0.82500000000000006661         1.1154969529577842824         
0.037500000000000005551         0.8375000000000000222          1.1157352516082172933         
0.037500000000000005551         0.85000000000000008882         1.1159737595503544938         
0.037500000000000005551         0.86250000000000004441         1.1162124752215436541         
0.037500000000000005551         0.875                          1.1164513889330680563         
0.037500000000000005551         0.88750000000000006661         1.1166904688884178309         
0.037500000000000005551         0.9000000000000000222          1.1169296257097409697         