TITLE = 'DEM DATA | DEM DATA | DEM DATA | DEM DATA'
VARIABLES = 'X' 'Y' 'E' 
ZONE T='SubZone'
I=80 J=80 K=1 ZONETYPE=Ordered
DATAPACKING=POINT
DT=(SINGLE SINGLE SINGLE )
0                               0                              1.1000000000000000888         
0                               0.012500000000000000694        1.1000000000000000888         
0                               0.025000000000000001388        1.1000000000000000888         
0                               0.037500000000000005551        1.1000000000000000888         
0                               0.050000000000000002776        1.1000000000000000888         
0                               0.0625                         1.1000000000000000888         
0                               0.075000000000000011102        1.1000000000000000888         
0                               0.087500000000000008327        1.1000000000000000888         
0                               0.10000000000000000555         1.1000000000000000888         
0                               0.11250000000000000278         1.1000000000000000888         
0                               0.125                          1.1000000000000000888         
0                               0.1375000000000000111          1.1000000000000000888         
0                               0.1500000000000000222          1.1000000000000000888         
0                               0.16250000000000000555         1.1000000000000000888         
0                               0.17500000000000001665         1.1000000000000000888         
0                               0.1875                         1.1000000000000000888         
0                               0.2000000000000000111          1.1000000000000000888         
0                               0.2125000000000000222          1.1000000000000000888         
0                               0.22500000000000000555         1.1000000000000000888         
0                               0.23750000000000001665         1.1000000000000000888         
0                               0.25                           1.1000000000000000888         
0                               0.2625000000000000111          1.1000000000000000888         
0                               0.2750000000000000222          1.1000000000000000888         
0                               0.28750000000000003331         1.1000000000000000888         
0                               0.30000000000000004441         1.1000000000000000888         
0                               0.3125                         1.1000000000000000888         
0                               0.3250000000000000111          1.1000000000000000888         
0                               0.3375000000000000222          1.1000000000000000888         
0                               0.35000000000000003331         1.1000000000000000888         
0                               0.36250000000000004441         1.1000000000000000888         
0                               0.375                          1.1000000000000000888         
0                               0.3875000000000000111          1.1000000000000000888         
0                               0.4000000000000000222          1.1000000000000000888         
0                               0.41250000000000003331         1.1000000000000000888         
0                               0.42500000000000004441         1.1000000000000000888         
0                               0.4375                         1.1000000000000000888         
0                               0.4500000000000000111          1.1000000000000000888         
0                               0.4625000000000000222          1.1000000000000000888         
0                               0.47500000000000003331         1.1000000000000000888         
0                               0.48750000000000004441         1.1000000000000000888         
0                               0.5                            1.1000000000000000888         
0                               0.51250000000000006661         1.1000000000000000888         
0                               0.5250000000000000222          1.1000000000000000888         
0                               0.5374999999999999778          1.1000000000000000888         
0                               0.55000000000000004441         1.1000000000000000888         
0                               0.5625                         1.1000000000000000888         
0                               0.57500000000000006661         1.1000000000000000888         
0                               0.5875000000000000222          1.1000000000000000888         
0                               0.60000000000000008882         1.1000000000000000888         
0                               0.61250000000000004441         1.1000000000000000888         
0                               0.625                          1.1000000000000000888         
0                               0.63750000000000006661         1.1000000000000000888         
0                               0.6500000000000000222          1.1000000000000000888         
0                               0.66250000000000008882         1.1000000000000000888         
0                               0.67500000000000004441         1.1000000000000000888         
0                               0.6875                         1.1000000000000000888         
0                               0.70000000000000006661         1.1000000000000000888         
0                               0.7125000000000000222          1.1000000000000000888         
0                               0.72500000000000008882         1.1000000000000000888         
0                               0.73750000000000004441         1.1000000000000000888         
0                               0.75                           1.1000000000000000888         
0                               0.76250000000000006661         1.1000000000000000888         
0                               0.7750000000000000222          1.1000000000000000888         
0                               0.78750000000000008882         1.1000000000000000888         
0                               0.80000000000000004441         1.1000000000000000888         
0                               0.8125                         1.1000000000000000888         
0                               0.82500000000000006661         1.1000000000000000888         
0                               0.8375000000000000222          1.1000000000000000888         
0                               0.85000000000000008882         1.1000000000000000888         
0                               0.86250000000000004441         1.1000000000000000888         
0                               0.875                          1.1000000000000000888         
0                               0.88750000000000006661         1.1000000000000000888         
0                               0.9000000000000000222          1.1000000000000000888         
0                               0.91250000000000008882         1.1000000000000000888         
0                               0.92500000000000004441         1.1000000000000000888         
0                               0.9375                         1.1000000000000000888         
0                               0.95000000000000006661         1.1000000000000000888         
0                               0.9625000000000000222          1.1000000000000000888         
0                               0.97500000000000008882         1.1000000000000000888         
0                               0.98750000000000004441         1.1000000000000000888         
0.012500000000000000694         0                              1.1000000000000000888         
0.012500000000000000694         0.012500000000000000694        1.1001066630109244127         
0.012500000000000000694         0.025000000000000001388        1.1002202593321877            
0.012500000000000000694         0.037500000000000005551        1.1003373255070127978         
0.012500000000000000694         0.050000000000000002776        1.1004557537956494162         
0.012500000000000000694         0.0625                         1.1005744426889119136         
0.012500000000000000694         0.075000000000000011102        1.100692947805055999          
0.012500000000000000694         0.087500000000000008327        1.1008111641810465198         
0.012500000000000000694         0.10000000000000000555         1.1009291174277235914         
0.012500000000000000694         0.11250000000000000278         1.1010468618748341374         
0.012500000000000000694         0.125                          1.101164445066602271          
0.012500000000000000694         0.1375000000000000111          1.1012819015453194638         
0.012500000000000000694         0.1500000000000000222          1.1013992554274050217         
0.012500000000000000694         0.16250000000000000555         1.1015165239028863464         
0.012500000000000000694         0.17500000000000001665         1.1016337197575900575         
0.012500000000000000694         0.1875                         1.1017508529046067256         
0.012500000000000000694         0.2000000000000000111          1.1018679309735792682         
0.012500000000000000694         0.2125000000000000222          1.1019849576561489002         
0.012500000000000000694         0.22500000000000000555         1.1021019364079915892         
0.012500000000000000694         0.23750000000000001665         1.1022188728342943165         
0.012500000000000000694         0.25                           1.1023357722209228271         
0.012500000000000000694         0.2625000000000000111          1.1024526393610800667         
0.012500000000000000694         0.2750000000000000222          1.1025694786834199235         
0.012500000000000000694         0.28750000000000003331         1.1026862943658968241         
0.012500000000000000694         0.30000000000000004441         1.102803090417582732          
0.012500000000000000694         0.3125                         1.102919870736168706          
0.012500000000000000694         0.3250000000000000111          1.1030366391479695665         
0.012500000000000000694         0.3375000000000000222          1.1031533994350761763         
0.012500000000000000694         0.35000000000000003331         1.1032701553532957561         
0.012500000000000000694         0.36250000000000004441         1.1033869106425582274         
0.012500000000000000694         0.375                          1.1035036690322668207         
0.012500000000000000694         0.3875000000000000111          1.1036204342420226077         
0.012500000000000000694         0.4000000000000000222          1.1037372099791800117         
0.012500000000000000694         0.41250000000000003331         1.1038539999339962439         
0.012500000000000000694         0.42500000000000004441         1.103970807772356677          
0.012500000000000000694         0.4375                         1.1040876371274306322         
0.012500000000000000694         0.4500000000000000111          1.1042044915900541824         
0.012500000000000000694         0.4625000000000000222          1.10432137469800562           
0.012500000000000000694         0.47500000000000003331         1.1044382899256286468         
0.012500000000000000694         0.48750000000000004441         1.1045552406726157901         
0.012500000000000000694         0.5                            1.1046722302533789062         
0.012500000000000000694         0.51250000000000006661         1.1047892618865096104         
0.012500000000000000694         0.5250000000000000222          1.1049063386852495672         
0.012500000000000000694         0.5374999999999999778          1.1050234636485758433         
0.012500000000000000694         0.55000000000000004441         1.1051406396535636834         
0.012500000000000000694         0.5625                         1.1052578694491101974         
0.012500000000000000694         0.57500000000000006661         1.1053751556511492993         
0.012500000000000000694         0.5875000000000000222          1.1054925007400671078         
0.012500000000000000694         0.60000000000000008882         1.105609907059829089          
0.012500000000000000694         0.61250000000000004441         1.1057273768198399022         
0.012500000000000000694         0.625                          1.1058449120998088411         
0.012500000000000000694         0.63750000000000006661         1.1059625148573524189         
0.012500000000000000694         0.6500000000000000222          1.1060801869400715969         
0.012500000000000000694         0.66250000000000008882         1.1061979301016624522         
0.012500000000000000694         0.67500000000000004441         1.1063157460238228769         
0.012500000000000000694         0.6875                         1.1064336363450784084         
0.012500000000000000694         0.70000000000000006661         1.1065516026978130526         
0.012500000000000000694         0.7125000000000000222          1.1066696467568053475         
0.012500000000000000694         0.72500000000000008882         1.1067877703021762326         
0.012500000000000000694         0.73750000000000004441         1.106905975301964995          
0.012500000000000000694         0.75                           1.1070242640223393327         
0.012500000000000000694         0.76250000000000006661         1.1071426391755967433         
0.012500000000000000694         0.7750000000000000222          1.1072611041234323714         
0.012500000000000000694         0.78750000000000008882         1.1073796631502552668         
0.012500000000000000694         0.80000000000000004441         1.1074983217476119801         
0.012500000000000000694         0.8125                         1.1076170862275462881         
0.012500000000000000694         0.82500000000000006661         1.1077359616079809346         
0.012500000000000000694         0.8375000000000000222          1.1078549519302611781         
0.012500000000000000694         0.85000000000000008882         1.1079740613791051462         
0.012500000000000000694         0.86250000000000004441         1.1080932944771741955         
0.012500000000000000694         0.875                          1.1082126559916276598         
0.012500000000000000694         0.88750000000000006661         1.1083321499867586635         
0.012500000000000000694         0.9000000000000000222          1.1084517757087197776         
0.012500000000000000694         0.91250000000000008882         1.1085715137795759677         
0.012500000000000000694         0.92500000000000004441         1.108691288291525856          
0.012500000000000000694         0.9375                         1.1088108821013871186         
0.012500000000000000694         0.95000000000000006661         1.1089297894937606426         
0.012500000000000000694         0.9625000000000000222          1.1090470431988013189         
0.012500000000000000694         0.97500000000000008882         1.1091611746736949051         
0.012500000000000000694         0.98750000000000004441         1.1092706148222315488         
0.025000000000000001388         0                              1.1000000000000000888         
0.025000000000000001388         0.012500000000000000694        1.1002172456538634737         
0.025000000000000001388         0.025000000000000001388        1.1004438335646544722         
0.025000000000000001388         0.037500000000000005551        1.1006764943948337265         
0.025000000000000001388         0.050000000000000002776        1.1009122442319931867         
0.025000000000000001388         0.0625                         1.1011490539348061102         
0.025000000000000001388         0.075000000000000011102        1.1013858569542542831         
0.025000000000000001388         0.087500000000000008327        1.1016222502904404745         
0.025000000000000001388         0.10000000000000000555         1.101858171490829541          
0.025000000000000001388         0.11250000000000000278         1.1020936823714040376         
0.025000000000000001388         0.125                          1.1023288651303946306         
0.025000000000000001388         0.1375000000000000111          1.102563787997097533          
0.025000000000000001388         0.1500000000000000222          1.1027985009446179543         
0.025000000000000001388         0.16250000000000000555         1.1030330399134673502         
0.025000000000000001388         0.17500000000000001665         1.1032674314575980912         
0.025000000000000001388         0.1875                         1.1035016959265095959         
0.025000000000000001388         0.2000000000000000111          1.1037358490052038285         
0.025000000000000001388         0.2125000000000000222          1.1039699020827726805         
0.025000000000000001388         0.22500000000000000555         1.1042038650498675612         
0.025000000000000001388         0.23750000000000001665         1.1044377483284308905         
0.025000000000000001388         0.25                           1.1046715619135885067         
0.025000000000000001388         0.2625000000000000111          1.1049053150222192254         
0.025000000000000001388         0.2750000000000000222          1.1051390162116148108         
0.025000000000000001388         0.28750000000000003331         1.105372673544883444          
0.025000000000000001388         0.30000000000000004441         1.1056062947203220137         
0.025000000000000001388         0.3125                         1.1058398871658150497         
0.025000000000000001388         0.3250000000000000111          1.1060734581068274451         
0.025000000000000001388         0.3375000000000000222          1.1063070146153080042         
0.025000000000000001388         0.35000000000000003331         1.1065405636446514759         
0.025000000000000001388         0.36250000000000004441         1.106774112054327075          
0.025000000000000001388         0.375                          1.1070076666268606758         
0.025000000000000001388         0.3875000000000000111          1.1072412340788648777         
0.025000000000000001388         0.4000000000000000222          1.1074748210677243243         
0.025000000000000001388         0.41250000000000003331         1.107708434195128433          
0.025000000000000001388         0.42500000000000004441         1.1079420800075574505         
0.025000000000000001388         0.4375                         1.1081757649952599376         
0.025000000000000001388         0.4500000000000000111          1.108409495589613547          
0.025000000000000001388         0.4625000000000000222          1.1086432781589043994         
0.025000000000000001388         0.47500000000000003331         1.1088771190039983239         
0.025000000000000001388         0.48750000000000004441         1.1091110243526030033         
0.025000000000000001388         0.5                            1.1093450003535896276         
0.025000000000000001388         0.51250000000000006661         1.1095790530704983112         
0.025000000000000001388         0.5250000000000000222          1.1098131884760518151         
0.025000000000000001388         0.5374999999999999778          1.1100474124449051239         
0.025000000000000001388         0.55000000000000004441         1.1102817307483450193         
0.025000000000000001388         0.5625                         1.1105161490485300213         
0.025000000000000001388         0.57500000000000006661         1.1107506728935119256         
0.025000000000000001388         0.5875000000000000222          1.1109853077135820598         
0.025000000000000001388         0.60000000000000008882         1.111220058818415124          
0.025000000000000001388         0.61250000000000004441         1.1114549313962900357         
0.025000000000000001388         0.625                          1.1116899305157572631         
0.025000000000000001388         0.63750000000000006661         1.111925061129655834          
0.025000000000000001388         0.6500000000000000222          1.1121603280837539796         
0.025000000000000001388         0.66250000000000008882         1.112395736129417001          
0.025000000000000001388         0.67500000000000004441         1.1126312899429826597         
0.025000000000000001388         0.6875                         1.1128669941532907117         
0.025000000000000001388         0.70000000000000006661         1.1131028533789555368         
0.025000000000000001388         0.7125000000000000222          1.1133388722802957105         
0.025000000000000001388         0.72500000000000008882         1.1135750556284911283         
0.025000000000000001388         0.73750000000000004441         1.1138114083994574699         
0.025000000000000001388         0.75                           1.1140479359014081595         
0.025000000000000001388         0.76250000000000006661         1.1142846439469504816         
0.025000000000000001388         0.7750000000000000222          1.1145215390841098912         
0.025000000000000001388         0.78750000000000008882         1.1147586288637385543         
0.025000000000000001388         0.80000000000000004441         1.1149959218931266847         
0.025000000000000001388         0.8125                         1.1152334270942869665         
0.025000000000000001388         0.82500000000000006661         1.1154711527776097757         
0.025000000000000001388         0.8375000000000000222          1.1157091066335145246         
0.025000000000000001388         0.85000000000000008882         1.1159472964249899096         
0.025000000000000001388         0.86250000000000004441         1.1161857300689015382         
0.025000000000000001388         0.875                          1.1164244145461057478         
0.025000000000000001388         0.88750000000000006661         1.1166633511965309289         
0.025000000000000001388         0.9000000000000000222          1.1169025201157374294         
0.025000000000000001388         0.91250000000000008882         1.1171418372230903504         
0.025000000000000001388         0.92500000000000004441         1.1173810568748274719         
0.025000000000000001388         0.9375                         1.1176195963312192116         
0.025000000000000001388         0.95000000000000006661         1.1178563087399711051         
0.025000000000000001388         0.9625000000000000222          1.1180893555764566116         
0.025000000000000001388         0.97500000000000008882         1.1183164861005698842         
0.025000000000000001388         0.98750000000000004441         1.1185360626167353271         
0.037500000000000005551         0                              1.1000000000000000888         
0.037500000000000005551         0.012500000000000000694        1.1003296456513009804         
0.037500000000000005551         0.025000000000000001388        1.1006696338879471408         
0.037500000000000005551         0.037500000000000005551        1.1010173284617010836         
0.037500000000000005551         0.050000000000000002776        1.1013696414273290713         
0.037500000000000005551         0.0625                         1.1017240179699372415         
0.037500000000000005551         0.075000000000000011102        1.1020788328314252702         
0.037500000000000005551         0.087500000000000008327        1.1024332999696113689         
0.037500000000000005551         0.10000000000000000555         1.1027871727559457327         
0.037500000000000005551         0.11250000000000000278         1.1031404615082978093         
0.037500000000000005551         0.125                          1.1034932580140492941         
0.037500000000000005551         0.1375000000000000111          1.1038456572103521047         
0.037500000000000005551         0.1500000000000000222          1.1041977345830913393         
0.037500000000000005551         0.16250000000000000555         1.1045495459361553969         
0.037500000000000005551         0.17500000000000001665         1.1049011325735600408         
0.037500000000000005551         0.1875                         1.1052525259203775931         
0.037500000000000005551         0.2000000000000000111          1.1056037503463946869         
0.037500000000000005551         0.2125000000000000222          1.1059548249056387892         
0.037500000000000005551         0.22500000000000000555         1.1063057659330561844         
0.037500000000000005551         0.23750000000000001665         1.1066565889690405111         
0.037500000000000005551         0.25                           1.1070073086884890667         
0.037500000000000005551         0.2625000000000000111          1.1073579386980065831         
0.037500000000000005551         0.2750000000000000222          1.1077084916583366248         
0.037500000000000005551         0.28750000000000003331         1.1080589794936623882         
0.037500000000000005551         0.30000000000000004441         1.1084094135705186979         
0.037500000000000005551         0.3125                         1.1087598048327664824         
0.037500000000000005551         0.3250000000000000111          1.1091101639006764046         
0.037500000000000005551         0.3375000000000000222          1.1094605011439968578         
0.037500000000000005551         0.35000000000000003331         1.1098108267357220669         
0.037500000000000005551         0.36250000000000004441         1.1101611506914321748         
0.037500000000000005551         0.375                          1.1105114828980402475         
0.037500000000000005551         0.3875000000000000111          1.1108618331342370311         
0.037500000000000005551         0.4000000000000000222          1.11121221108454038           
0.037500000000000005551         0.41250000000000003331         1.1115626263490614445         
0.037500000000000005551         0.42500000000000004441         1.1119130884486108091         
0.037500000000000005551         0.4375                         1.1122636068277145238         
0.037500000000000005551         0.4500000000000000111          1.1126141908548710102         
0.037500000000000005551         0.4625000000000000222          1.1129648498211184293         
0.037500000000000005551         0.47500000000000003331         1.1133155929375677662         
0.037500000000000005551         0.48750000000000004441         1.1136664293313676133         
0.037500000000000005551         0.5                            1.114017368041579914          
0.037500000000000005551         0.51250000000000006661         1.1143684180142849893         
0.037500000000000005551         0.5250000000000000222          1.1147195880975191429         
0.037500000000000005551         0.5374999999999999778          1.1150708870362888714         
0.037500000000000005551         0.55000000000000004441         1.1154223234680022969         
0.037500000000000005551         0.5625                         1.1157739059181215335         
0.037500000000000005551         0.57500000000000006661         1.1161256427967454208         
0.037500000000000005551         0.5875000000000000222          1.1164775423964132806         
0.037500000000000005551         0.60000000000000008882         1.1168296128908803411         
0.037500000000000005551         0.61250000000000004441         1.1171818623359683897         
0.037500000000000005551         0.625                          1.1175342986730965045         
0.037500000000000005551         0.63750000000000006661         1.1178869297349474099         
0.037500000000000005551         0.6500000000000000222          1.1182397632559386569         
0.037500000000000005551         0.66250000000000008882         1.1185928068869672725         
0.037500000000000005551         0.67500000000000004441         1.1189460682165763838         
0.037500000000000005551         0.6875                         1.119299554800911034          
0.037500000000000005551         0.70000000000000006661         1.1196532742036964247         
0.037500000000000005551         0.7125000000000000222          1.1200072340513349545         
0.037500000000000005551         0.72500000000000008882         1.1203614421067400464         
0.037500000000000005551         0.73750000000000004441         1.1207159063691503054         
0.037500000000000005551         0.75                           1.1210706352101460492         
0.037500000000000005551         0.76250000000000006661         1.121425637555208521          
0.037500000000000005551         0.7750000000000000222          1.12178092311283506           
0.037500000000000005551         0.78750000000000008882         1.1221365025701166562         
0.037500000000000005551         0.80000000000000004441         1.122492387378069445          
0.037500000000000005551         0.8125                         1.1228485890710730999         
0.037500000000000005551         0.82500000000000006661         1.1232051189469216546         
0.037500000000000005551         0.8375000000000000222          1.1235619877860267835         
0.037500000000000005551         0.85000000000000008882         1.1239192061279887902         
0.037500000000000005551         0.86250000000000004441         1.1242767835684632782         
0.037500000000000005551         0.875                          1.1246347249828405612         
0.037500000000000005551         0.88750000000000006661         1.1249930177787856866         
0.037500000000000005551         0.9000000000000000222          1.1253515961657749589         