TITLE = 'DEM DATA | DEM DATA | DEM DATA | DEM DATA'
VARIABLES = 'X' 'Y' 'E' 
ZONE T='SubZone'
I=20 J=20 K=1 ZONETYPE=Ordered
DATAPACKING=POINT
DT=(SINGLE SINGLE SINGLE )
0                               0                              1.1000000000000000888         
0                               0.050000000000000002776        1.1000000000000000888         
0                               0.10000000000000000555         1.1000000000000000888         
0                               0.1500000000000000222          1.1000000000000000888         
0                               0.2000000000000000111          1.1000000000000000888         
0                               0.25                           1.1000000000000000888         
0                               0.30000000000000004441         1.1000000000000000888         
0                               0.35000000000000003331         1.1000000000000000888         
0                               0.4000000000000000222          1.1000000000000000888         
0                               0.4500000000000000111          1.1000000000000000888         
0                               0.5                            1.1000000000000000888         
0                               0.55000000000000004441         1.1000000000000000888         
0                               0.60000000000000008882         1.1000000000000000888         
0                               0.6500000000000000222          1.1000000000000000888         
0                               0.70000000000000006661         1.1000000000000000888         
0                               0.75                           1.1000000000000000888         
0                               0.80000000000000004441         1.1000000000000000888         
0                               0.85000000000000008882         1.1000000000000000888         
0                               0.9000000000000000222          1.1000000000000000888         
0                               0.95000000000000006661         1.1000000000000000888         
0.050000000000000002776         0                              1.1000000000000000888         
0.050000000000000002776         0.050000000000000002776        1.1021253140483164845         
0.050000000000000002776         0.10000000000000000555         1.1046286998831253978         
0.050000000000000002776         0.1500000000000000222          1.1071919296182439751         
0.050000000000000002776         0.2000000000000000111          1.1097221699380885873         
0.050000000000000002776         0.25                           1.1122188298663981953         
0.050000000000000002776         0.30000000000000004441         1.1146945343464171874         
0.050000000000000002776         0.35000000000000003331         1.1171595691643971815         
0.050000000000000002776         0.4000000000000000222          1.1196214033456015624         
0.050000000000000002776         0.4500000000000000111          1.122086287169927532          
0.050000000000000002776         0.5                            1.1245598594952845861         
0.050000000000000002776         0.55000000000000004441         1.1270472255995360733         
0.050000000000000002776         0.60000000000000008882         1.1295528821950624465         
0.050000000000000002776         0.6500000000000000222          1.1320806835087313669         
0.050000000000000002776         0.70000000000000006661         1.1346340138753128191         
0.050000000000000002776         0.75                           1.1372164187219437892         
0.050000000000000002776         0.80000000000000004441         1.1398327243318042701         
0.050000000000000002776         0.85000000000000008882         1.1424860227230573262         
0.050000000000000002776         0.9000000000000000222          1.1451511873620032755         
0.050000000000000002776         0.95000000000000006661         1.1477155381509069887         
0.10000000000000000555          0                              1.1000000000000000888         
0.10000000000000000555          0.050000000000000002776        1.1043912754431799428         
0.10000000000000000555          0.10000000000000000555         1.1093003565498624763         
0.10000000000000000555          0.1500000000000000222          1.114375951006806087          
0.10000000000000000555          0.2000000000000000111          1.1194290121225860535         
0.10000000000000000555          0.25                           1.124424708162261588          
0.10000000000000000555          0.30000000000000004441         1.1293789230029180892         
0.10000000000000000555          0.35000000000000003331         1.1343107095727873457         
0.10000000000000000555          0.4000000000000000222          1.1392346014605436721         
0.10000000000000000555          0.4500000000000000111          1.1441622982874153358         
0.10000000000000000555          0.5                            1.1491041309850260621         
0.10000000000000000555          0.55000000000000004441         1.1540696459486528003         
0.10000000000000000555          0.60000000000000008882         1.1590678054695955357         
0.10000000000000000555          0.6500000000000000222          1.164107116761703864          
0.10000000000000000555          0.70000000000000006661         1.1691959282656367858         
0.10000000000000000555          0.75                           1.1743429621479122282         
0.10000000000000000555          0.80000000000000004441         1.1795556741800434786         
0.10000000000000000555          0.85000000000000008882         1.1848241398281262882         
0.10000000000000000555          0.9000000000000000222          1.1900722636301150903         
0.10000000000000000555          0.95000000000000006661         1.1951201030916531742         
0.1500000000000000222           0                              1.1000000000000000888         
0.1500000000000000222           0.050000000000000002776        1.1067239056549904586         
0.1500000000000000222           0.10000000000000000555         1.1140177491063592008         
0.1500000000000000222           0.1500000000000000222          1.1215643217209796401         
0.1500000000000000222           0.2000000000000000111          1.129123618012957575          
0.1500000000000000222           0.25                           1.1366153533778193818         
0.1500000000000000222           0.30000000000000004441         1.1440458390235659358         
0.1500000000000000222           0.35000000000000003331         1.1514397230565160957         
0.1500000000000000222           0.4000000000000000222          1.1588185274726501284         
0.1500000000000000222           0.4500000000000000111          1.1661996717183973349         
0.1500000000000000222           0.5                            1.1735983446752964454         
0.1500000000000000222           0.55000000000000004441         1.1810285782619247552         
0.1500000000000000222           0.60000000000000008882         1.1885037187869251785         
0.1500000000000000222           0.6500000000000000222          1.1960367317629816419         
0.1500000000000000222           0.70000000000000006661         1.2036405473578624115         
0.1500000000000000222           0.75                           1.211327554538455642          
0.1500000000000000222           0.80000000000000004441         1.2191018727122679977         
0.1500000000000000222           0.85000000000000008882         1.2269295125368331334         
0.1500000000000000222           0.9000000000000000222          1.234689174807508838          
0.1500000000000000222           0.95000000000000006661         1.2421986520983738789         
0.2000000000000000111           0                              1.1000000000000000888         
0.2000000000000000111           0.050000000000000002776        1.1090942721713985541         
0.2000000000000000111           0.10000000000000000555         1.1187733234461756382         
0.2000000000000000111           0.1500000000000000222          1.128764137487360264          
0.2000000000000000111           0.2000000000000000111          1.138810074375022463          
0.2000000000000000111           0.25                           1.1487905657991346331         
0.2000000000000000111           0.30000000000000004441         1.1586931496296715149         
0.2000000000000000111           0.35000000000000003331         1.1685430244633268071         
0.2000000000000000111           0.4000000000000000222          1.1783676586879088255         
0.2000000000000000111           0.4500000000000000111          1.1881901359481554792         
0.2000000000000000111           0.5                            1.1980304536122001746         
0.2000000000000000111           0.55000000000000004441         1.2079070035787118353         
0.2000000000000000111           0.60000000000000008882         1.2178373548579572994         
0.2000000000000000111           0.6500000000000000222          1.2278386987555502952         
0.2000000000000000111           0.70000000000000006661         1.2379278689470627484         
0.2000000000000000111           0.75                           1.2481183565994640183         
0.2000000000000000111           0.80000000000000004441         1.2584047241143392348         
0.2000000000000000111           0.85000000000000008882         1.2687253040138759541         
0.2000000000000000111           0.9000000000000000222          1.2789331721503871542         
0.2000000000000000111           0.95000000000000006661         1.288884108051976618          
0.25                            0                              1.1000000000000000888         
0.25                            0.050000000000000002776        1.1114893950310189563         
0.25                            0.10000000000000000555         1.123559788464342013          
0.25                            0.1500000000000000222          1.1359785749006889866         
0.25                            0.2000000000000000111          1.148492272554690441          
0.25                            0.25                           1.1609508377949020463         
0.25                            0.30000000000000004441         1.1733188880146991906         
0.25                            0.35000000000000003331         1.1856167872924536777         
0.25                            0.4000000000000000222          1.1978759148401671997         
0.25                            0.4500000000000000111          1.2101245855949005481         
0.25                            0.5                            1.2223874382957158335         
0.25                            0.55000000000000004441         1.2346870106466962813         
0.25                            0.60000000000000008882         1.2470448101131175189         
0.25                            0.6500000000000000222          1.2594817890872129773         
0.25                            0.70000000000000006661         1.2720174673413009447         
0.25                            0.75                           1.2846631631011882213         
0.25                            0.80000000000000004441         1.2973993117850686208         
0.25                            0.85000000000000008882         1.3101395137607523278         
0.25                            0.9000000000000000222          1.32273209895787347           
0.25                            0.95000000000000006661         1.3350905040521765521         
0.30000000000000004441          0                              1.1000000000000000888         
0.30000000000000004441          0.050000000000000002776        1.1139025792718919572         
0.30000000000000004441          0.10000000000000000555         1.1283716702387940334         
0.30000000000000004441          0.1500000000000000222          1.1432086729863035757         
0.30000000000000004441          0.2000000000000000111          1.1581733384282046906         
0.30000000000000004441          0.25                           1.1730970401420450777         
0.30000000000000004441          0.30000000000000004441         1.1879213226965299466         
0.30000000000000004441          0.35000000000000003331         1.2026571689847684876         
0.30000000000000004441          0.4000000000000000222          1.2173371259859633309         
0.30000000000000004441          0.4500000000000000111          1.2319938252838831261         
0.30000000000000004441          0.5                            1.2466561954972843473         
0.30000000000000004441          0.55000000000000004441         1.26135059826375584           
0.30000000000000004441          0.60000000000000008882         1.2761020570928429674         
0.30000000000000004441          0.6500000000000000222          1.2909345457769956234         
0.30000000000000004441          0.70000000000000006661         1.30586854813374309           
0.30000000000000004441          0.75                           1.3209098228007216669         
0.30000000000000004441          0.80000000000000004441         1.3360225681713635559         
0.30000000000000004441          0.85000000000000008882         1.3511024408866889601         
0.30000000000000004441          0.9000000000000000222          1.3660101521992156215         
0.30000000000000004441          0.95000000000000006661         1.3807244385521662            
0.35000000000000003331          0                              1.1000000000000000888         
0.35000000000000003331          0.050000000000000002776        1.1163298989397225647         
0.35000000000000003331          0.10000000000000000555         1.1332049966571635657         
0.35000000000000003331          0.1500000000000000222          1.1504544093606730026         
0.35000000000000003331          0.2000000000000000111          1.167855531414033976          
0.35000000000000003331          0.25                           1.1852301190308687229         
0.35000000000000003331          0.30000000000000004441         1.2024989039134639235         
0.35000000000000003331          0.35000000000000003331         1.2196602974880559334         
0.35000000000000003331          0.4000000000000000222          1.2367449741773519634         
0.35000000000000003331          0.4500000000000000111          1.2537884798736613767         
0.35000000000000003331          0.5                            1.2708234367009352273         
0.35000000000000003331          0.55000000000000004441         1.2878795743230952997         
0.35000000000000003331          0.60000000000000008882         1.3049848459401771628         
0.35000000000000003331          0.6500000000000000222          1.3221652059693145276         
0.35000000000000003331          0.70000000000000006661         1.3394400146916631833         
0.35000000000000003331          0.75                           1.3568065466513103967         
0.35000000000000003331          0.80000000000000004441         1.3742130204021316686         
0.35000000000000003331          0.85000000000000008882         1.3915453643658182159         
0.35000000000000003331          0.9000000000000000222          1.4086890518205106293         
0.35000000000000003331          0.95000000000000006661         1.4256895533512163876         
0.4000000000000000222           0                              1.1000000000000000888         
0.4000000000000000222           0.050000000000000002776        1.1187687766335498996         
0.4000000000000000222           0.10000000000000000555         1.1380567910437584533         
0.4000000000000000222           0.1500000000000000222          1.157715224766045603          
0.4000000000000000222           0.2000000000000000111          1.1775403184908559417         
0.4000000000000000222           0.25                           1.1973508713455032204         
0.4000000000000000222           0.30000000000000004441         1.2170501690363684233         
0.4000000000000000222           0.35000000000000003331         1.236622255576054652          
0.4000000000000000222           0.4000000000000000222          1.2560929630895956155         
0.4000000000000000222           0.4500000000000000111          1.2754989444903670481         
0.4000000000000000222           0.5                            1.2948756307195994353         
0.4000000000000000222           0.55000000000000004441         1.314255493168078992          
0.4000000000000000222           0.60000000000000008882         1.3336686374067776573         
0.4000000000000000222           0.6500000000000000222          1.3531416678810133103         
0.4000000000000000222           0.70000000000000006661         1.3726905503373008077         
0.4000000000000000222           0.75                           1.392302107719091353          
0.4000000000000000222           0.80000000000000004441         1.4119104678835916467         
0.4000000000000000222           0.85000000000000008882         1.4314000005710569852         
0.4000000000000000222           0.9000000000000000222          1.4506891300064965744         
0.4000000000000000222           0.95000000000000006661         1.4698885742085285866         
0.4500000000000000111           0                              1.1000000000000000888         
0.4500000000000000111           0.050000000000000002776        1.12121734734440337           
0.4500000000000000111           0.10000000000000000555         1.1429246893708253641         
0.4500000000000000111           0.1500000000000000222          1.1649902503361819761         
0.4500000000000000111           0.2000000000000000111          1.1872284820561016527         
0.4500000000000000111           0.25                           1.2094597954625831981         
0.4500000000000000111           0.30000000000000004441         1.2315736384588118479         
0.4500000000000000111           0.35000000000000003331         1.2535390558314243314         
0.4500000000000000111           0.4000000000000000222          1.2753743989956165539         
0.4500000000000000111           0.4500000000000000111          1.2971153488786351105         
0.4500000000000000111           0.5                            1.3187989582172288117         
0.4500000000000000111           0.55000000000000004441         1.3404596051804891221         
0.4500000000000000111           0.60000000000000008882         1.3621285580988469199         
0.4500000000000000111           0.6500000000000000222          1.3838315004638099825         
0.4500000000000000111           0.70000000000000006661         1.4055787816507665511         
0.4500000000000000111           0.75                           1.4273458917872305918         
0.4500000000000000111           0.80000000000000004441         1.4490557243073594051         
0.4500000000000000111           0.85000000000000008882         1.4705983613198103654         
0.4500000000000000111           0.9000000000000000222          1.4919301527677923946         
0.4500000000000000111           0.95000000000000006661         1.5132244110648462865         
0.5                             0                              1.1000000000000000888         
0.5                             0.050000000000000002776        1.1236741481392746866         
0.5                             0.10000000000000000555         1.1478066921575789117         
0.5                             0.1500000000000000222          1.1722783981817599397         
0.5                             0.2000000000000000111          1.1969202146717035085         
0.5                             0.25                           1.2215570038261658325         
0.5                             0.30000000000000004441         1.2460677180916222007         
0.5                             0.35000000000000003331         1.2704066045019706266         
0.5                             0.4000000000000000222          1.2945823799190514514         
0.5                             0.4500000000000000111          1.3186275369799826951         
0.5                             0.5                            1.3425792809031755759         
0.5                             0.55000000000000004441         1.3664728225945839135         
0.5                             0.60000000000000008882         1.3903393804731813965         
0.5                             0.6500000000000000222          1.4142019636047131748         
0.5                             0.70000000000000006661         1.438063442171074513          
0.5                             0.75                           1.4618879227686316646         
0.5                             0.80000000000000004441         1.4855904519092595351         
0.5                             0.85000000000000008882         1.5090728013887662051         
0.5                             0.9000000000000000222          1.5323319329063465055         
0.5                             0.95000000000000006661         1.5556008555341538369         
0.55000000000000004441          0                              1.1000000000000000888         
0.55000000000000004441          0.050000000000000002776        1.1261379577911752037         
0.55000000000000004441          0.10000000000000000555         1.1527010137721289684         
0.55000000000000004441          0.1500000000000000222          1.1795783975941767086         
0.55000000000000004441          0.2000000000000000111          1.2066151941743799014         
0.55000000000000004441          0.25                           1.2336421778781385683         
0.55000000000000004441          0.30000000000000004441         1.2605306159409321864         
0.55000000000000004441          0.35000000000000003331         1.2872206615487693515         
0.55000000000000004441          0.4000000000000000222          1.3137097891272340178         
0.55000000000000004441          0.4500000000000000111          1.3400250601617802459         
0.55000000000000004441          0.5                            1.3662021261140526729         
0.55000000000000004441          0.55000000000000004441         1.3922757032854549131         
0.55000000000000004441          0.60000000000000008882         1.4182755254014156598         
0.55000000000000004441          0.6500000000000000222          1.4442200728115990316         
0.55000000000000004441          0.70000000000000006661         1.4701034953601124222         
0.55000000000000004441          0.75                           1.4958788899413055784         
0.55000000000000004441          0.80000000000000004441         1.5214570843593613336         
0.55000000000000004441          0.85000000000000008882         1.5467561532985751871         
0.55000000000000004441          0.9000000000000000222          1.5718148083138194782         
0.55000000000000004441          0.95000000000000006661         1.5969230881921430143         
0.60000000000000008882          0                              1.1000000000000000888         
0.60000000000000008882          0.050000000000000002776        1.1286077135882732758         
0.60000000000000008882          0.10000000000000000555         1.157605997377440854          
0.60000000000000008882          0.1500000000000000222          1.186888815363794647          
0.60000000000000008882          0.2000000000000000111          1.2163126447697574228         
0.60000000000000008882          0.25                           1.2457145504204096831         
0.60000000000000008882          0.30000000000000004441         1.274960272110198467          
0.60000000000000008882          0.35000000000000003331         1.3039768188889395706         
0.60000000000000008882          0.4000000000000000222          1.33274927776833918           
0.60000000000000008882          0.4500000000000000111          1.3612971797887984948         
0.60000000000000008882          0.5                            1.3896526858443947194         
0.60000000000000008882          0.55000000000000004441         1.4178484477993202884         
0.60000000000000008882          0.60000000000000008882         1.4459110440145226395         
0.60000000000000008882          0.6500000000000000222          1.4738528001054023164         
0.60000000000000008882          0.70000000000000006661         1.5016581866468716733         
0.60000000000000008882          0.75                           1.5292701680825324662         
0.60000000000000008882          0.80000000000000004441         1.5565988181449486039         
0.60000000000000008882          0.85000000000000008882         1.5835819032134224038         
0.60000000000000008882          0.9000000000000000222          1.6103000396060533905         
0.60000000000000008882          0.95000000000000006661         1.637098091315602133          
0.6500000000000000222           0                              1.1000000000000000888         
0.6500000000000000222           0.050000000000000002776        1.1310824811974642401         
0.6500000000000000222           0.10000000000000000555         1.162520081377765413          
0.6500000000000000222           0.1500000000000000222          1.1942080798150063181         
0.6500000000000000222           0.2000000000000000111          1.2260113921942927817         
0.6500000000000000222           0.25                           1.2577729082372854919         
0.6500000000000000222           0.30000000000000004441         1.2893543153545483637         
0.6500000000000000222           0.35000000000000003331         1.3206704694948654399         
0.6500000000000000222           0.4000000000000000222          1.3516932742148961566         
0.6500000000000000222           0.4500000000000000111          1.3824328421779761289         
0.6500000000000000222           0.5                            1.4129157935617353559         
0.6500000000000000222           0.55000000000000004441         1.4431708530416764713         
0.6500000000000000222           0.60000000000000008882         1.4732197422338841886         
0.6500000000000000222           0.6500000000000000222          1.5030671648609879032         
0.6500000000000000222           0.70000000000000006661         1.5326871443347720447         
0.6500000000000000222           0.75                           1.5620138435519155262         
0.6500000000000000222           0.80000000000000004441         1.5909596535337080514         
0.6500000000000000222           0.85000000000000008882         1.6194843934649816308         
0.6500000000000000222           0.9000000000000000222          1.6477101782113177109         
0.6500000000000000222           0.95000000000000006661         1.6760350361486517912         
0.70000000000000006661          0                              1.1000000000000000888         
0.70000000000000006661          0.050000000000000002776        1.1335615126465927727         
0.70000000000000006661          0.10000000000000000555         1.1674418481864465846         
0.70000000000000006661          0.1500000000000000222          1.2015345355579143405         
0.70000000000000006661          0.2000000000000000111          1.2357099252421612778         
0.70000000000000006661          0.25                           1.2698156126289119605         
0.70000000000000006661          0.30000000000000004441         1.3037100379541148865         
0.70000000000000006661          0.35000000000000003331         1.3372967738484395905         
0.70000000000000006661          0.4000000000000000222          1.3705340195121435976         
0.70000000000000006661          0.4500000000000000111          1.4034207350760501409         
0.70000000000000006661          0.5                            1.4359759333923414193         
0.70000000000000006661          0.55000000000000004441         1.4682224482317403069         
0.70000000000000006661          0.60000000000000008882         1.5001753590929254312         
0.70000000000000006661          0.6500000000000000222          1.5318302849679632516         
0.70000000000000006661          0.70000000000000006661         1.5631504661142512358         
0.70000000000000006661          0.75                           1.5940627582355046954         
0.70000000000000006661          0.80000000000000004441         1.6244844857607563249         
0.70000000000000006661          0.85000000000000008882         1.6543990927954723702         
0.70000000000000006661          0.9000000000000000222          1.6839695422904537025         
0.70000000000000006661          0.95000000000000006661         1.7136458111225196799         
0.75                            0                              1.1000000000000000888         
0.75                            0.050000000000000002776        1.1360446295027739616         
0.75                            0.10000000000000000555         1.1723703774563523083         
0.75                            0.1500000000000000222          1.208866649939150939          
0.75                            0.2000000000000000111          1.2454065095635962201         
0.75                            0.25                           1.2818406462065345952         
0.75                            0.30000000000000004441         1.3180243904019492973         
0.75                            0.35000000000000003331         1.353850647030529597          
0.75                            0.4000000000000000222          1.3892635482956403603         
0.75                            0.4500000000000000111          1.4242493614706124294         
0.75                            0.5                            1.4588174266439408733         
0.75                            0.55000000000000004441         1.4929826294426244981         
0.75                            0.60000000000000008882         1.5267515669041520354         