TITLE = 'DEM DATA | DEM DATA | DEM DATA | DEM DATA'
VARIABLES = 'X' 'Y' 'E' 
ZONE T='SubZone'
I=20 J=20 K=1 ZONETYPE=Ordered
DATAPACKING=POINT
DT=(SINGLE SINGLE SINGLE )
0                               0                              1.1000000000000001            
0                               0.050000000000000003           1.1000000000000001            
0                               0.10000000000000001            1.1000000000000001            
0                               0.15000000000000002            1.1000000000000001            
0                               0.20000000000000001            1.1000000000000001            
0                               0.25                           1.1000000000000001            
0                               0.30000000000000004            1.1000000000000001            
0                               0.35000000000000003            1.1000000000000001            
0                               0.40000000000000002            1.1000000000000001            
0                               0.45000000000000001            1.1000000000000001            
0                               0.5                            1.1000000000000001            
0                               0.55000000000000004            1.1000000000000001            
0                               0.60000000000000009            1.1000000000000001            
0                               0.65000000000000002            1.1000000000000001            
0                               0.70000000000000007            1.1000000000000001            
0                               0.75                           1.1000000000000001            
0                               0.80000000000000004            1.1000000000000001            
0                               0.85000000000000009            1.1000000000000001            
0                               0.90000000000000002            1.1000000000000001            
0                               0.95000000000000007            1.1000000000000001            
0.050000000000000003            0                              1.1000000000000001            
0.050000000000000003            0.050000000000000003           1.1015309981109056            
0.050000000000000003            0.10000000000000001            1.1034142534115678            
0.050000000000000003            0.15000000000000002            1.1053564827764688            
0.050000000000000003            0.20000000000000001            1.1072711503673247            
0.050000000000000003            0.25                           1.1091569811089574            
0.050000000000000003            0.30000000000000004            1.1110251067364481            
0.050000000000000003            0.35000000000000003            1.1128842793262446            
0.050000000000000003            0.40000000000000002            1.1147405121462231            
0.050000000000000003            0.45000000000000001            1.1165986115650668            
0.050000000000000003            0.5                            1.1184627911946428            
0.050000000000000003            0.55000000000000004            1.1203367996753963            
0.050000000000000003            0.60000000000000009            1.1222238982425419            
0.050000000000000003            0.65000000000000002            1.1241268493839998            
0.050000000000000003            0.70000000000000007            1.1260480378033413            
0.050000000000000003            0.75                           1.1279898740063474            
0.050000000000000003            0.80000000000000004            1.1299552880692287            
0.050000000000000003            0.85000000000000009            1.1319439680670933            
0.050000000000000003            0.90000000000000002            1.1339305422232218            
0.050000000000000003            0.95000000000000007            1.1358232970068991            
0.10000000000000001             0                              1.1000000000000001            
0.10000000000000001             0.050000000000000003           1.1031925638390676            
0.10000000000000001             0.10000000000000001            1.1068692127275253            
0.10000000000000001             0.15000000000000002            1.1107067827177666            
0.10000000000000001             0.20000000000000001            1.114529698513341             
0.10000000000000001             0.25                           1.1183042620859331            
0.10000000000000001             0.30000000000000004            1.122043776998199             
0.10000000000000001             0.35000000000000003            1.1257644341456261            
0.10000000000000001             0.40000000000000002            1.1294781503530344            
0.10000000000000001             0.45000000000000001            1.1331941495892917            
0.10000000000000001             0.5                            1.1369203442261833            
0.10000000000000001             0.55000000000000004            1.1406638966465323            
0.10000000000000001             0.60000000000000009            1.1444314143297758            
0.10000000000000001             0.65000000000000002            1.148229047333938             
0.10000000000000001             0.70000000000000007            1.1520626488018972            
0.10000000000000001             0.75                           1.1559379098670224            
0.10000000000000001             0.80000000000000004            1.1598582052733852            
0.10000000000000001             0.85000000000000009            1.1638102520625384            
0.10000000000000001             0.90000000000000002            1.167725825120834             
0.10000000000000001             0.95000000000000007            1.1714608619329618            
0.15000000000000002             0                              1.1000000000000001            
0.15000000000000002             0.050000000000000003           1.1049163793124279            
0.15000000000000002             0.10000000000000001            1.1103675757662852            
0.15000000000000002             0.15000000000000002            1.116062647933963             
0.15000000000000002             0.20000000000000001            1.1217791830585946            
0.15000000000000002             0.25                           1.1274410209873815            
0.15000000000000002             0.30000000000000004            1.133051919776958             
0.15000000000000002             0.35000000000000003            1.1386326340821407            
0.15000000000000002             0.40000000000000002            1.1442009895986989            
0.15000000000000002             0.45000000000000001            1.149770940952388             
0.15000000000000002             0.5                            1.1553543008098894            
0.15000000000000002             0.55000000000000004            1.160961734879093             
0.15000000000000002             0.60000000000000009            1.1666031835498163            
0.15000000000000002             0.65000000000000002            1.1722880751960574            
0.15000000000000002             0.70000000000000007            1.1780254316717282            
0.15000000000000002             0.75                           1.1838229330681871            
0.15000000000000002             0.80000000000000004            1.1896796584493194            
0.15000000000000002             0.85000000000000009            1.1955610768307503            
0.15000000000000002             0.90000000000000002            1.2013616996536434            
0.15000000000000002             0.95000000000000007            1.2069324937454116            
0.20000000000000001             0                              1.1000000000000001            
0.20000000000000001             0.050000000000000003           1.106675811777079             
0.20000000000000001             0.10000000000000001            1.1139025762789885            
0.20000000000000001             0.15000000000000002            1.121431083660352             
0.20000000000000001             0.20000000000000001            1.1290241394573453            
0.20000000000000001             0.25                           1.1365682647062794            
0.20000000000000001             0.30000000000000004            1.1440493965550405            
0.20000000000000001             0.35000000000000003            1.1514883059266634            
0.20000000000000001             0.40000000000000002            1.1589078787375384            
0.20000000000000001             0.45000000000000001            1.1663268775442199            
0.20000000000000001             0.5                            1.1737611006797284            
0.20000000000000001             0.55000000000000004            1.1812247260652489            
0.20000000000000001             0.60000000000000009            1.1887309894987002            
0.20000000000000001             0.65000000000000002            1.196292474698851             
0.20000000000000001             0.70000000000000007            1.2039208399517149            
0.20000000000000001             0.75                           1.2116236927405422            
0.20000000000000001             0.80000000000000004            1.2193910394947234            
0.20000000000000001             0.85000000000000009            1.2271646510638181            
0.20000000000000001             0.90000000000000002            1.2348167388969822            
0.20000000000000001             0.95000000000000007            1.2422213559975004            
0.25                            0                              1.1000000000000001            
0.25                            0.050000000000000003           1.1084589995867755            
0.25                            0.10000000000000001            1.1174677527112606            
0.25                            0.15000000000000002            1.1268155241873858            
0.25                            0.20000000000000001            1.136268983852188             
0.25                            0.25                           1.1456877208475336            
0.25                            0.30000000000000004            1.1550363233370293            
0.25                            0.35000000000000003            1.1643307965502527            
0.25                            0.40000000000000002            1.1735973686118555            
0.25                            0.45000000000000001            1.1828593809011769            
0.25                            0.5                            1.1921366376195064            
0.25                            0.55000000000000004            1.201446801849863             
0.25                            0.60000000000000009            1.2108063030903315            
0.25                            0.65000000000000002            1.2202306023201592            
0.25                            0.70000000000000007            1.2297330715264823            
0.25                            0.75                           1.2393187184706538            
0.25                            0.80000000000000004            1.2489650493288982            
0.25                            0.85000000000000009            1.2585925785446841            
0.25                            0.90000000000000002            1.2680665240620805            
0.25                            0.95000000000000007            1.277297028010332             
0.30000000000000004             0                              1.1000000000000001            
0.30000000000000004             0.050000000000000003           1.1102599094834644            
0.30000000000000004             0.10000000000000001            1.1210583709903523            
0.30000000000000004             0.15000000000000002            1.1322174864974797            
0.30000000000000004             0.20000000000000001            1.1435174943301634            
0.30000000000000004             0.25                           1.1548015546392163            
0.30000000000000004             0.30000000000000004            1.1660131344092446            
0.30000000000000004             0.35000000000000003            1.1771595435373308            
0.30000000000000004             0.40000000000000002            1.1882680342796026            
0.30000000000000004             0.45000000000000001            1.1993658965027387            
0.30000000000000004             0.5                            1.2104768341833165            
0.30000000000000004             0.55000000000000004            1.2216219145982441            
0.30000000000000004             0.60000000000000009            1.2328205796700569            
0.30000000000000004             0.65000000000000002            1.2440906989766127            
0.30000000000000004             0.70000000000000007            1.2554460803664864            
0.30000000000000004             0.75                           1.2668865993627683            
0.30000000000000004             0.80000000000000004            1.2783757215349529            
0.30000000000000004             0.85000000000000009            1.2898179068449274            
0.30000000000000004             0.90000000000000002            1.3010835860279306            
0.30000000000000004             0.95000000000000007            1.3121233981929785            
0.35000000000000003             0                              1.1000000000000001            
0.35000000000000003             0.050000000000000003           1.1120750852109729            
0.35000000000000003             0.10000000000000001            1.1246711272306467            
0.35000000000000003             0.15000000000000002            1.137637567549497             
0.35000000000000003             0.20000000000000001            1.1507727246343979            
0.35000000000000003             0.25                           1.1639120958425924            
0.35000000000000003             0.30000000000000004            1.1769805423806203            
0.35000000000000003             0.35000000000000003            1.189974075668945             
0.35000000000000003             0.40000000000000002            1.2029184373130686            
0.35000000000000003             0.45000000000000001            1.2158438298743357            
0.35000000000000003             0.5                            1.228777567333283             
0.35000000000000003             0.55000000000000004            1.2417439597165087            
0.35000000000000003             0.60000000000000009            1.2547651767050545            
0.35000000000000003             0.65000000000000002            1.2678608175146686            
0.35000000000000003             0.70000000000000007            1.2810436081046963            
0.35000000000000003             0.75                           1.2943061657426453            
0.35000000000000003             0.80000000000000004            1.3075981459297883            
0.35000000000000003             0.85000000000000009            1.3208140960281098            
0.35000000000000003             0.90000000000000002            1.3338382127017854            
0.35000000000000003             0.95000000000000007            1.346661685979055             
0.40000000000000002             0                              1.1000000000000001            
0.40000000000000002             0.050000000000000003           1.1139023360772338            
0.40000000000000002             0.10000000000000001            1.1283036793380512            
0.40000000000000002             0.15000000000000002            1.1430759313435648            
0.40000000000000002             0.20000000000000001            1.158037078179275             
0.40000000000000002             0.25                           1.1730216366495358            
0.40000000000000002             0.30000000000000004            1.1879394605820361            
0.40000000000000002             0.35000000000000003            1.2027740090163908            
0.40000000000000002             0.40000000000000002            1.217547108879222             
0.40000000000000002             0.45000000000000001            1.2322905105726685            
0.40000000000000002             0.5                            1.2470346232030938            
0.40000000000000002             0.55000000000000004            1.2618067221113425            
0.40000000000000002             0.60000000000000009            1.2766312918113063            
0.40000000000000002             0.65000000000000002            1.2915287824415631            
0.40000000000000002             0.70000000000000007            1.3065092304695243            
0.40000000000000002             0.75                           1.3215565757675805            
0.40000000000000002             0.80000000000000004            1.3366081497409674            
0.40000000000000002             0.85000000000000009            1.3515545491848144            
0.40000000000000002             0.90000000000000002            1.3662991487962552            
0.40000000000000002             0.95000000000000007            1.3808717584545771            
0.45000000000000001             0                              1.1000000000000001            
0.45000000000000001             0.050000000000000003           1.1157401527832589            
0.45000000000000001             0.10000000000000001            1.1319542971655077            
0.45000000000000001             0.15000000000000002            1.148532522991081             
0.45000000000000001             0.20000000000000001            1.1653124129843797            
0.45000000000000001             0.25                           1.1821323006742399            
0.45000000000000001             0.30000000000000004            1.1988909130786987            
0.45000000000000001             0.35000000000000003            1.2155590324799268            
0.45000000000000001             0.40000000000000002            1.2321525410587046            
0.45000000000000001             0.45000000000000001            1.2487031668946453            
0.45000000000000001             0.5                            1.2652436599736401            
0.45000000000000001             0.55000000000000004            1.2818038304872981            
0.45000000000000001             0.60000000000000009            1.2984099162041531            
0.45000000000000001             0.65000000000000002            1.3150821789964298            
0.45000000000000001             0.70000000000000007            1.3318264349501612            
0.45000000000000001             0.75                           1.3486173058091957            
0.45000000000000001             0.80000000000000004            1.3653820287210217            
0.45000000000000001             0.85000000000000009            1.3820124234488749            
0.45000000000000001             0.90000000000000002            1.3984340830828992            
0.45000000000000001             0.95000000000000007            1.4147127851470793            
0.5                             0                              1.1000000000000001            
0.5                             0.050000000000000003           1.1175874261254579            
0.5                             0.10000000000000001            1.1356216408271724            
0.5                             0.15000000000000002            1.1540071595081622            
0.5                             0.20000000000000001            1.1726001355454563            
0.5                             0.25                           1.191245967977743             
0.5                             0.30000000000000004            1.209835947876116             
0.5                             0.35000000000000003            1.2283288831086625            
0.5                             0.40000000000000002            1.2467331831456703            
0.5                             0.45000000000000001            1.2650789114626995            
0.5                             0.5                            1.2834001806475679            
0.5                             0.55000000000000004            1.3017287223311318            
0.5                             0.60000000000000009            1.320091805719074             
0.5                             0.65000000000000002            1.3385083553410528            
0.5                             0.70000000000000007            1.3569786898071869            
0.5                             0.75                           1.3754681103490449            
0.5                             0.80000000000000004            1.3938963435560443            
0.5                             0.85000000000000009            1.4121605670454291            
0.5                             0.90000000000000002            1.4302099737995215            
0.5                             0.95000000000000007            1.4481436060463138            
0.55000000000000004             0                              1.1000000000000001            
0.55000000000000004             0.050000000000000003           1.1194433046143737            
0.55000000000000004             0.10000000000000001            1.1393046313800821            
0.55000000000000004             0.15000000000000002            1.1594995737435627            
0.55000000000000004             0.20000000000000001            1.1799012786847216            
0.55000000000000004             0.25                           1.2003642388240776            
0.55000000000000004             0.30000000000000004            1.2207755625830246            
0.55000000000000004             0.35000000000000003            1.241083315711246             
0.55000000000000004             0.40000000000000002            1.2612874396764007            
0.55000000000000004             0.45000000000000001            1.2814147359690842            
0.55000000000000004             0.5                            1.3014995160397862            
0.55000000000000004             0.55000000000000004            1.3215746209347261            
0.55000000000000004             0.60000000000000009            1.3416674682427208            
0.55000000000000004             0.65000000000000002            1.3617944472247772            
0.55000000000000004             0.70000000000000007            1.3819494859568617            
0.55000000000000004             0.75                           1.402088970077541             
0.55000000000000004             0.80000000000000004            1.4221277718468186            
0.55000000000000004             0.85000000000000009            1.4419715066438838            
0.55000000000000004             0.90000000000000002            1.4615932666914946            
0.55000000000000004             0.95000000000000007            1.4811229613439056            
0.60000000000000009             0                              1.1000000000000001            
0.60000000000000009             0.050000000000000003           1.1213071208000824            
0.60000000000000009             0.10000000000000001            1.1430023811990719            
0.60000000000000009             0.15000000000000002            1.1650094456219895            
0.60000000000000009             0.20000000000000001            1.1872165692275691            
0.60000000000000009             0.25                           1.2094884247835893            
0.60000000000000009             0.30000000000000004            1.2317106466344445            
0.60000000000000009             0.35000000000000003            1.2538220750385836            
0.60000000000000009             0.40000000000000002            1.2758136642869864            
0.60000000000000009             0.45000000000000001            1.2977075121832617            
0.60000000000000009             0.5                            1.3195368173340312            
0.60000000000000009             0.55000000000000004            1.3413345228213633            
0.60000000000000009             0.60000000000000009            1.3631271496434871            
0.60000000000000009             0.65000000000000002            1.3849274554901523            
0.60000000000000009             0.70000000000000007            1.4067223387740058            
0.60000000000000009             0.75                           1.428460027117642             
0.60000000000000009             0.80000000000000004            1.4500529963856372            
0.60000000000000009             0.85000000000000009            1.4714174491917202            
0.60000000000000009             0.90000000000000002            1.492550043610215             
0.60000000000000009             0.95000000000000007            1.5136096492576296            
0.65000000000000002             0                              1.1000000000000001            
0.65000000000000002             0.050000000000000003           1.123178357281778             
0.65000000000000002             0.10000000000000001            1.1467141632379476            
0.65000000000000002             0.15000000000000002            1.1705364339260766            
0.65000000000000002             0.20000000000000001            1.1945464917443842            
0.65000000000000002             0.25                           1.2186195610567268            
0.65000000000000002             0.30000000000000004            1.2426419448098203            
0.65000000000000002             0.35000000000000003            1.2665448662735357            
0.65000000000000002             0.40000000000000002            1.2903101599901436            
0.65000000000000002             0.45000000000000001            1.3139539857451941            
0.65000000000000002             0.5                            1.3375070449664546            
0.65000000000000002             0.55000000000000004            1.3610011746770898            
0.65000000000000002             0.60000000000000009            1.3844608779774494            
0.65000000000000002             0.65000000000000002            1.4078942749473884            
0.65000000000000002             0.70000000000000007            1.4312807949976289            
0.65000000000000002             0.75                           1.4545615110577041            
0.65000000000000002             0.80000000000000004            1.4776486118340364            
0.65000000000000002             0.85000000000000009            1.500470283991667             
0.65000000000000002             0.90000000000000002            1.523046132576295             
0.65000000000000002             0.95000000000000007            1.5455626532860316            
0.70000000000000007             0                              1.1000000000000001            
0.70000000000000007             0.050000000000000003           1.1250566651122884            
0.70000000000000007             0.10000000000000001            1.1504394267548825            
0.70000000000000007             0.15000000000000002            1.176080220017919             
0.70000000000000007             0.20000000000000001            1.2018913536152647            
0.70000000000000007             0.25                           1.2277584362107186            
0.70000000000000007             0.30000000000000004            1.2535700398728653            
0.70000000000000007             0.35000000000000003            1.2792513294668759            
0.70000000000000007             0.40000000000000002            1.3047751857673646            
0.70000000000000007             0.45000000000000001            1.3301507971152502            
0.70000000000000007             0.5                            1.3554049722379344            
0.70000000000000007             0.55000000000000004            1.3805671209157528            
0.70000000000000007             0.60000000000000009            1.4056585260362557            
0.70000000000000007             0.65000000000000002            1.4306816990319573            
0.70000000000000007             0.70000000000000007            1.4556084158350353            
0.70000000000000007             0.75                           1.4803736564313996            
0.70000000000000007             0.80000000000000004            1.5048910418772523            
0.70000000000000007             0.85000000000000009            1.5291015970792432            
0.70000000000000007             0.90000000000000002            1.5530472385278504            
0.70000000000000007             0.95000000000000007            1.5769413090052531            
0.75                            0                              1.1000000000000001            
0.75                            0.050000000000000003           1.1269420805837491            
0.75                            0.10000000000000001            1.154177989638461             
0.75                            0.15000000000000002            1.1816406294541806            
0.75                            0.20000000000000001            1.2092513728142513            
0.75                            0.25                           1.2369056400078058            
0.75                            0.30000000000000004            1.264495354426646             
0.75                            0.35000000000000003            1.2919410265978408            
0.75                            0.40000000000000002            1.3192069467119798            
0.75                            0.45000000000000001            1.3462945073020205            
0.75                            0.5                            1.3732252510308562            
0.75                            0.55000000000000004            1.4000247492002476            
0.75                            0.60000000000000009            1.4267098015730753            