TITLE = 'DEM DATA | DEM DATA | DEM DATA | DEM DATA'
VARIABLES = 'X' 'Y' 'E' 
ZONE T='SubZone'
I=20 J=20 K=1 ZONETYPE=Ordered
DATAPACKING=POINT
DT=(SINGLE SINGLE SINGLE )
0                               0                              1.1000000000000000888         
0                               0.050000000000000002776        1.1000000000000000888         
0                               0.10000000000000000555         1.1000000000000000888         
0                               0.1500000000000000222          1.1000000000000000888         
0                               0.2000000000000000111          1.1000000000000000888         
0                               0.25                           1.1000000000000000888         
0                               0.30000000000000004441         1.1000000000000000888         
0                               0.35000000000000003331         1.1000000000000000888         
0                               0.4000000000000000222          1.1000000000000000888         
0                               0.4500000000000000111          1.1000000000000000888         
0                               0.5                            1.1000000000000000888         
0                               0.55000000000000004441         1.1000000000000000888         
0                               0.60000000000000008882         1.1000000000000000888         
0                               0.6500000000000000222          1.1000000000000000888         
0                               0.70000000000000006661         1.1000000000000000888         
0                               0.75                           1.1000000000000000888         
0                               0.80000000000000004441         1.1000000000000000888         
0                               0.85000000000000008882         1.1000000000000000888         
0                               0.9000000000000000222          1.1000000000000000888         
0                               0.95000000000000006661         1.1000000000000000888         
0.050000000000000002776         0                              1.1000000000000000888         
0.050000000000000002776         0.050000000000000002776        1.1003428987659298333         
0.050000000000000002776         0.10000000000000000555         1.1009856829025930214         
0.050000000000000002776         0.1500000000000000222          1.1016856196601216844         
0.050000000000000002776         0.2000000000000000111          1.1023688996952927255         
0.050000000000000002776         0.25                           1.1030327371980928053         
0.050000000000000002776         0.30000000000000004441         1.1036851865960919383         
0.050000000000000002776         0.35000000000000003331         1.1043318806967108436         
0.050000000000000002776         0.4000000000000000222          1.1049758808282172939         
0.050000000000000002776         0.4500000000000000111          1.1056190713364328904         
0.050000000000000002776         0.5                            1.1062627874579622489         
0.050000000000000002776         0.55000000000000004441         1.1069080430409101723         
0.050000000000000002776         0.60000000000000008882         1.1075556117398992484         
0.050000000000000002776         0.6500000000000000222          1.1082060566573415095         
0.050000000000000002776         0.70000000000000006661         1.108859737410281987          
0.050000000000000002776         0.75                           1.1095167173901325786         
0.050000000000000002776         0.80000000000000004441         1.1101757467729669315         
0.050000000000000002776         0.85000000000000008882         1.1108280028252170979         
0.050000000000000002776         0.9000000000000000222          1.1114456068968745495         
0.050000000000000002776         0.95000000000000006661         1.1119869815757288389         
0.10000000000000000555          0                              1.1000000000000000888         
0.10000000000000000555          0.050000000000000002776        1.1007971545579315897         
0.10000000000000000555          0.10000000000000000555         1.1020083364480219856         
0.10000000000000000555          0.1500000000000000222          1.1033684662697802459         
0.10000000000000000555          0.2000000000000000111          1.1047296971986910741         
0.10000000000000000555          0.25                           1.1060601855713623198         
0.10000000000000000555          0.30000000000000004441         1.1073676308438831217         
0.10000000000000000555          0.35000000000000003331         1.108662223748124287          
0.10000000000000000555          0.4000000000000000222          1.1099504444800518677         
0.10000000000000000555          0.4500000000000000111          1.1112363965297675783         
0.10000000000000000555          0.5                            1.1125230142887547746         
0.10000000000000000555          0.55000000000000004441         1.1138125782418435428         
0.10000000000000000555          0.60000000000000008882         1.1151068912741615158         
0.10000000000000000555          0.6500000000000000222          1.1164072895265786389         
0.10000000000000000555          0.70000000000000006661         1.1177144660878997051         
0.10000000000000000555          0.75                           1.1190275820258330786         
0.10000000000000000555          0.80000000000000004441         1.1203402260593970929         
0.10000000000000000555          0.85000000000000008882         1.1216286055997504167         
0.10000000000000000555          0.9000000000000000222          1.1228404914814043014         
0.10000000000000000555          0.95000000000000006661         1.1239318784114236127         
0.1500000000000000222           0                              1.1000000000000000888         
0.1500000000000000222           0.050000000000000002776        1.1013067201871225009         
0.1500000000000000222           0.10000000000000000555         1.1030714988969618773         
0.1500000000000000222           0.1500000000000000222          1.1050595640706435407         
0.1500000000000000222           0.2000000000000000111          1.1070862077794747513         
0.1500000000000000222           0.25                           1.1090828920635016352         
0.1500000000000000222           0.30000000000000004441         1.1110470452695919708         
0.1500000000000000222           0.35000000000000003331         1.1129907901361961731         
0.1500000000000000222           0.4000000000000000222          1.1149239653919467141         
0.1500000000000000222           0.4500000000000000111          1.1168531095327087765         
0.1500000000000000222           0.5                            1.11878286232399482           
0.1500000000000000222           0.55000000000000004441         1.1207167914848059631         
0.1500000000000000222           0.60000000000000008882         1.1226576933451313245         
0.1500000000000000222           0.6500000000000000222          1.1246075606895358234         
0.1500000000000000222           0.70000000000000006661         1.1265670246501990892         
0.1500000000000000222           0.75                           1.1285329854283396855         
0.1500000000000000222           0.80000000000000004441         1.1304908601772034604         
0.1500000000000000222           0.85000000000000008882         1.1324001111415251675         
0.1500000000000000222           0.9000000000000000222          1.1341948010990714479         
0.1500000000000000222           0.95000000000000006661         1.1358479149514140172         
0.2000000000000000111           0                              1.1000000000000000888         
0.2000000000000000111           0.050000000000000002776        1.1018508554044907921         
0.2000000000000000111           0.10000000000000000555         1.1041716968906856167         
0.2000000000000000111           0.1500000000000000222          1.1067667061317347788         
0.2000000000000000111           0.2000000000000000111          1.1094435839018941259         
0.2000000000000000111           0.25                           1.1121027793633802006         
0.2000000000000000111           0.30000000000000004441         1.114724530014178816          
0.2000000000000000111           0.35000000000000003331         1.117318745975197869          
0.2000000000000000111           0.4000000000000000222          1.1198977675555048528         
0.2000000000000000111           0.4500000000000000111          1.1224706286362826635         
0.2000000000000000111           0.5                            1.1250437833773969665         
0.2000000000000000111           0.55000000000000004441         1.1276221267095032363         
0.2000000000000000111           0.60000000000000008882         1.130209412902325683          
0.2000000000000000111           0.6500000000000000222          1.1328081000655927379         
0.2000000000000000111           0.70000000000000006661         1.1354180971735419181         
0.2000000000000000111           0.75                           1.1380323121021691524         
0.2000000000000000111           0.80000000000000004441         1.1406256351474202138         
0.2000000000000000111           0.85000000000000008882         1.1431424875780351602         
0.2000000000000000111           0.9000000000000000222          1.1455143293539924443         
0.2000000000000000111           0.95000000000000006661         1.1477399256829434737         
0.25                            0                              1.1000000000000000888         
0.25                            0.050000000000000002776        1.1024212356195564055         
0.25                            0.10000000000000000555         1.1053063487881500393         
0.25                            0.1500000000000000222          1.1084956432773753754         
0.25                            0.2000000000000000111          1.1118076324732748539         
0.25                            0.25                           1.1151227806535723985         
0.25                            0.30000000000000004441         1.1184016040639235268         
0.25                            0.35000000000000003331         1.1216473897363861134         
0.25                            0.4000000000000000222          1.1248732535888101847         
0.25                            0.4500000000000000111          1.1280904747846729475         
0.25                            0.5                            1.1313073769287451675         
0.25                            0.55000000000000004441         1.134530208923270278          
0.25                            0.60000000000000008882         1.1377636084879447775         
0.25                            0.6500000000000000222          1.1410101809476611567         
0.25                            0.70000000000000006661         1.1442681714926667969         
0.25                            0.75                           1.1475246066283595336         
0.25                            0.80000000000000004441         1.1507425194281175607         
0.25                            0.85000000000000008882         1.1538551264253344986         
0.25                            0.9000000000000000222          1.1568010073390666559         
0.25                            0.95000000000000006661         1.1596088613739805595         
0.30000000000000004441          0                              1.1000000000000000888         
0.30000000000000004441          0.050000000000000002776        1.1030139033406394233         
0.30000000000000004441          0.10000000000000000555         1.1064742317999241017         
0.30000000000000004441          0.1500000000000000222          1.1102512240342405914         
0.30000000000000004441          0.2000000000000000111          1.1141845695351222378         
0.30000000000000004441          0.25                           1.1181468574070787536         
0.30000000000000004441          0.30000000000000004441         1.1220803849993752355         
0.30000000000000004441          0.35000000000000003331         1.1259782488232314979         
0.30000000000000004441          0.4000000000000000222          1.1298519318451709648         
0.30000000000000004441          0.4500000000000000111          1.1337142510283562125         
0.30000000000000004441          0.5                            1.1375753180674101905         
0.30000000000000004441          0.55000000000000004441         1.1414427214766345031         
0.30000000000000004441          0.60000000000000008882         1.1453218377928029437         
0.30000000000000004441          0.6500000000000000222          1.1492149127331530156         
0.30000000000000004441          0.70000000000000006661         1.1531172678108103646         
0.30000000000000004441          0.75                           1.1570081362702919758         
0.30000000000000004441          0.80000000000000004441         1.1608384673776481755         
0.30000000000000004441          0.85000000000000008882         1.1645355941820958456         
0.30000000000000004441          0.9000000000000000222          1.1680539008959900382         
0.30000000000000004441          0.95000000000000006661         1.1714538424085896295         
0.35000000000000003331          0                              1.1000000000000000888         
0.35000000000000003331          0.050000000000000002776        1.1036260187803625943         
0.35000000000000003331          0.10000000000000000555         1.1076742166330091344         
0.35000000000000003331          0.1500000000000000222          1.1120373984460443229         
0.35000000000000003331          0.2000000000000000111          1.1165807419769180342         
0.35000000000000003331          0.25                           1.1211799422875654564         
0.35000000000000003331          0.30000000000000004441         1.1257637474659092369         
0.35000000000000003331          0.35000000000000003331         1.1303131843649585342         
0.35000000000000003331          0.4000000000000000222          1.1348354330144467816         
0.35000000000000003331          0.4500000000000000111          1.1393436187736365461         
0.35000000000000003331          0.5                            1.1438493159383225084         
0.35000000000000003331          0.55000000000000004441         1.1483613361725018009         
0.35000000000000003331          0.60000000000000008882         1.1528855142539842227         
0.35000000000000003331          0.6500000000000000222          1.1574229408093075211         
0.35000000000000003331          0.70000000000000006661         1.1619643823410170658         
0.35000000000000003331          0.75                           1.1664795073756126786         
0.35000000000000003331          0.80000000000000004441         1.1709083703133447152         
0.35000000000000003331          0.85000000000000008882         1.1751793694142371738         
0.35000000000000003331          0.9000000000000000222          1.179270600325898144          
0.35000000000000003331          0.95000000000000006661         1.1832735726795218234         
0.4000000000000000222           0                              1.1000000000000000888         
0.4000000000000000222           0.050000000000000002776        1.1042545536393919559         
0.4000000000000000222           0.10000000000000000555         1.1089040108311576383         
0.4000000000000000222           0.1500000000000000222          1.1138563865196025038         
0.4000000000000000222           0.2000000000000000111          1.1190018716148966149         
0.4000000000000000222           0.25                           1.1242275828181402808         
0.4000000000000000222           0.30000000000000004441         1.1294553583778295103         
0.4000000000000000222           0.35000000000000003331         1.1346544851318711711         
0.4000000000000000222           0.4000000000000000222          1.1398255278621141073         
0.4000000000000000222           0.4500000000000000111          1.1449802521163212621         
0.4000000000000000222           0.5                            1.150131018358953483          
0.4000000000000000222           0.55000000000000004441         1.1552875333968761762         
0.4000000000000000222           0.60000000000000008882         1.1604555467501571631         
0.4000000000000000222           0.6500000000000000222          1.1656337670223373415         
0.4000000000000000222           0.70000000000000006661         1.1708064251866519001         
0.4000000000000000222           0.75                           1.1759324882591881689         
0.4000000000000000222           0.80000000000000004441         1.1809445188761444889         
0.4000000000000000222           0.85000000000000008882         1.1857806899721954341         
0.4000000000000000222           0.9000000000000000222          1.1904489350817382132         
0.4000000000000000222           0.95000000000000006661         1.195067410557772547          
0.4500000000000000111           0                              1.1000000000000000888         
0.4500000000000000111           0.050000000000000002776        1.1048960348249898811         
0.4500000000000000111           0.10000000000000000555         1.110159612645750915          
0.4500000000000000111           0.1500000000000000222          1.1157077330899352052         
0.4500000000000000111           0.2000000000000000111          1.1214518044309937927         
0.4500000000000000111           0.25                           1.1272950177052323273         
0.4500000000000000111           0.30000000000000004441         1.1331593163269797486         
0.4500000000000000111           0.35000000000000003331         1.1390047630651407573         
0.4500000000000000111           0.4000000000000000222          1.1448240148818751294         
0.4500000000000000111           0.4500000000000000111          1.1506256421879297314         
0.4500000000000000111           0.5                            1.1564216982974397929         
0.4500000000000000111           0.55000000000000004441         1.1622220793355297896         
0.4500000000000000111           0.60000000000000008882         1.1680314529774846743         
0.4500000000000000111           0.6500000000000000222          1.1738444014445048591         
0.4500000000000000111           0.70000000000000006661         1.1796366678489180746         
0.4500000000000000111           0.75                           1.1853571106936600099         
0.4500000000000000111           0.80000000000000004441         1.1909372409229483925         
0.4500000000000000111           0.85000000000000008882         1.1963344226574079698         
0.4500000000000000111           0.9000000000000000222          1.2015885917551591966         
0.4500000000000000111           0.95000000000000006661         1.206835941819780933          
0.5                             0                              1.1000000000000000888         
0.5                             0.050000000000000002776        1.1055468580986864691         
0.5                             0.10000000000000000555         1.1114356405826719687         
0.5                             0.1500000000000000222          1.1175879813173732469         
0.5                             0.2000000000000000111          1.1239312542322124067         
0.5                             0.25                           1.1303856915687979789         
0.5                             0.30000000000000004441         1.1368790975241649388         
0.5                             0.35000000000000003331         1.1433662946777782832         
0.5                             0.4000000000000000222          1.1498321415813412827         
0.5                             0.4500000000000000111          1.156280402321807621          
0.5                             0.5                            1.1627213174875070667         
0.5                             0.55000000000000004441         1.1691637020904896982         
0.5                             0.60000000000000008882         1.1756095496072955786         
0.5                             0.6500000000000000222          1.1820473023114359545         
0.5                             0.70000000000000006661         1.1884433343222839952         
0.5                             0.75                           1.1947400838320987315         
0.5                             0.80000000000000004441         1.2008771236565938256         
0.5                             0.85000000000000008882         1.2068383686607810912         
0.5                             0.9000000000000000222          1.2126920331568329381         
0.5                             0.95000000000000006661         1.2185809222876655689         
0.55000000000000004441          0                              1.1000000000000000888         
0.55000000000000004441          0.050000000000000002776        1.1062037610884469796         
0.55000000000000004441          0.10000000000000000555         1.1127262558795731895         
0.55000000000000004441          0.1500000000000000222          1.1194913261926500159         
0.55000000000000004441          0.2000000000000000111          1.1264373082966545603         
0.55000000000000004441          0.25                           1.133499778701332783          
0.55000000000000004441          0.30000000000000004441         1.1406159017223855834         
0.55000000000000004441          0.35000000000000003331         1.1477395517180821738         
0.55000000000000004441          0.4000000000000000222          1.1548491615445770631         
0.55000000000000004441          0.4500000000000000111          1.1619426059363666681         
0.55000000000000004441          0.5                            1.1690264831062509021         
0.55000000000000004441          0.55000000000000004441         1.1761066228459717831         
0.55000000000000004441          0.60000000000000008882         1.1831803342081754771         
0.55000000000000004441          0.6500000000000000222          1.190228510341120316          
0.55000000000000004441          0.70000000000000006661         1.1972098572960947482         
0.55000000000000004441          0.75                           1.2040675214987410779         
0.55000000000000004441          0.80000000000000004441         1.2107584147708478906         
0.55000000000000004441          0.85000000000000008882         1.2172949740092626758         
0.55000000000000004441          0.9000000000000000222          1.2237643106844910967         
0.55000000000000004441          0.95000000000000006661         1.2303046926540883721         
0.60000000000000008882          0                              1.1000000000000000888         
0.60000000000000008882          0.050000000000000002776        1.106864156305407576          
0.60000000000000008882          0.10000000000000000555         1.1140261604727572653         
0.60000000000000008882          0.1500000000000000222          1.121411025793110916          
0.60000000000000008882          0.2000000000000000111          1.1289642132700310473         
0.60000000000000008882          0.25                           1.1366337255473450973         
0.60000000000000008882          0.30000000000000004441         1.1443673095845028342         
0.60000000000000008882          0.35000000000000003331         1.1521214621639046527         
0.60000000000000008882          0.4000000000000000222          1.1598703148027500465         
0.60000000000000008882          0.4500000000000000111          1.1676053854670982446         
0.60000000000000008882          0.5                            1.1753276978561384425         
0.60000000000000008882          0.55000000000000004441         1.1830378466335147447         
0.60000000000000008882          0.60000000000000008882         1.1907267583091694085         
0.60000000000000008882          0.6500000000000000222          1.19836830023977714           
0.60000000000000008882          0.70000000000000006661         1.2059184923453469818         
0.60000000000000008882          0.75                           1.213329835808759416          
0.60000000000000008882          0.80000000000000004441         1.2205821222846722218         
0.60000000000000008882          0.85000000000000008882         1.2277114541453100216         
0.60000000000000008882          0.9000000000000000222          1.2348118505769702935         
0.60000000000000008882          0.95000000000000006661         1.2420093846672703997         
0.6500000000000000222           0                              1.1000000000000000888         
0.6500000000000000222           0.050000000000000002776        1.1075262115517781059         
0.6500000000000000222           0.10000000000000000555         1.1153312298532134239         
0.6500000000000000222           0.1500000000000000222          1.1233409056631744605         
0.6500000000000000222           0.2000000000000000111          1.1315052051311507153         
0.6500000000000000222           0.25                           1.1397814901411160715         
0.6500000000000000222           0.30000000000000004441         1.1481276349401412507         
0.6500000000000000222           0.35000000000000003331         1.156505105223099461          
0.6500000000000000222           0.4000000000000000222          1.1648860517973116391         
0.6500000000000000222           0.4500000000000000111          1.1732558629004508077         
0.6500000000000000222           0.5                            1.1816084399248201198         
0.6500000000000000222           0.55000000000000004441         1.1899373199915028732         
0.6500000000000000222           0.60000000000000008882         1.1982267430327855351         
0.6500000000000000222           0.6500000000000000222          1.2064466553429775697         
0.6500000000000000222           0.70000000000000006661         1.2145571811413258256         
0.6500000000000000222           0.75                           1.2225266418193101448         
0.6500000000000000222           0.80000000000000004441         1.2303568879091035804         
0.6500000000000000222           0.85000000000000008882         1.2380980565233712376         
0.6500000000000000222           0.9000000000000000222          1.245840785113914162          
0.6500000000000000222           0.95000000000000006661         1.2536962807595790625         
0.70000000000000006661          0                              1.1000000000000000888         
0.70000000000000006661          0.050000000000000002776        1.1081887361938120851         
0.70000000000000006661          0.10000000000000000555         1.1166386360749482876         
0.70000000000000006661          0.1500000000000000222          1.1252762948613439509         
0.70000000000000006661          0.2000000000000000111          1.1340544216127044219         
0.70000000000000006661          0.25                           1.1429369656977463876         
0.70000000000000006661          0.30000000000000004441         1.1518904334149544511         
0.70000000000000006661          0.35000000000000003331         1.1608823099939089563         
0.70000000000000006661          0.4000000000000000222          1.1698849023367967614         
0.70000000000000006661          0.4500000000000000111          1.1788785451469327992         
0.70000000000000006661          0.5                            1.1878496540647180968         
0.70000000000000006661          0.55000000000000004441         1.196784336664073356          
0.70000000000000006661          0.60000000000000008882         1.2056617530598925381         
0.70000000000000006661          0.6500000000000000222          1.2144524660109323744         
0.70000000000000006661          0.70000000000000006661         1.2231261883578250504         
0.70000000000000006661          0.75                           1.2316683891567776765         
0.70000000000000006661          0.80000000000000004441         1.2400966867164007201         
0.70000000000000006661          0.85000000000000008882         1.2484652252712096221         
0.70000000000000006661          0.9000000000000000222          1.2568555754719898943         
0.70000000000000006661          0.95000000000000006661         1.2653655473411435928         
0.75                            0                              1.1000000000000000888         
0.75                            0.050000000000000002776        1.1088510297472053967         
0.75                            0.10000000000000000555         1.11794662926776045           
0.75                            0.1500000000000000222          1.1272141684249969984         
0.75                            0.2000000000000000111          1.1366079124689416613         
0.75                            0.25                           1.1460960358854359598         
0.75                            0.30000000000000004441         1.1556516237161935656         
0.75                            0.35000000000000003331         1.1652480708194621339         
0.75                            0.4000000000000000222          1.1748595256397595943         
0.75                            0.4500000000000000111          1.1844632159010226591         
0.75                            0.5                            1.1940394546372758988         
0.75                            0.55000000000000004441         1.2035684737424592328         
0.75                            0.60000000000000008882         1.2130272076567658601         
0.75                            0.6500000000000000222          1.2223905601020566003         
0.75                            0.70000000000000006661         1.2316395002660578406         
0.75                            0.75                           1.2407730050889640427         
0.75                            0.80000000000000004441         1.2498164007872796244         