TITLE = 'DEM DATA | DEM DATA | DEM DATA | DEM DATA'
VARIABLES = 'X' 'Y' 'E' 
ZONE T='SubZone'
I=10 J=10 K=1 ZONETYPE=Ordered
DATAPACKING=POINT
DT=(SINGLE SINGLE SINGLE )
0                               0                              1.1000000000000001            
0                               0.10000000000000001            1.1000000000000001            
0                               0.20000000000000001            1.1000000000000001            
0                               0.30000000000000004            1.1000000000000001            
0                               0.40000000000000002            1.1000000000000001            
0                               0.5                            1.1000000000000001            
0                               0.60000000000000009            1.1000000000000001            
0                               0.70000000000000007            1.1000000000000001            
0                               0.80000000000000004            1.1000000000000001            
0                               0.90000000000000002            1.1000000000000001            
0.10000000000000001             0                              1.1000000000000001            
0.10000000000000001             0.10000000000000001            1.1033034087844888            
0.10000000000000001             0.20000000000000001            1.1086329699355089            
0.10000000000000001             0.30000000000000004            1.1139502115808328            
0.10000000000000001             0.40000000000000002            1.1190695137021691            
0.10000000000000001             0.5                            1.1241447878264446            
0.10000000000000001             0.60000000000000009            1.129282432989307             
0.10000000000000001             0.70000000000000007            1.1345425362170429            
0.10000000000000001             0.80000000000000004            1.1399165706089429            
0.10000000000000001             0.90000000000000002            1.1451749542970679            
0.20000000000000001             0                              1.1000000000000001            
0.20000000000000001             0.10000000000000001            1.1071876055102092            
0.20000000000000001             0.20000000000000001            1.1172673589251456            
0.20000000000000001             0.30000000000000004            1.1277999814644262            
0.20000000000000001             0.40000000000000002            1.1380723103566002            
0.20000000000000001             0.5                            1.1482302374409352            
0.20000000000000001             0.60000000000000009            1.1584755742669817            
0.20000000000000001             0.70000000000000007            1.1689225028695718            
0.20000000000000001             0.80000000000000004            1.1795039051732925            
0.20000000000000001             0.90000000000000002            1.1898360458179962            
0.30000000000000004             0                              1.1000000000000001            
0.30000000000000004             0.10000000000000001            1.1114125410189943            
0.30000000000000004             0.20000000000000001            1.1260258665634932            
0.30000000000000004             0.30000000000000004            1.1415952604705086            
0.30000000000000004             0.40000000000000002            1.1569993028494463            
0.30000000000000004             0.5                            1.1722379503210589            
0.30000000000000004             0.60000000000000009            1.1875615905378529            
0.30000000000000004             0.70000000000000007            1.2031092621085497            
0.30000000000000004             0.80000000000000004            1.2187456367549707            
0.30000000000000004             0.90000000000000002            1.2341024077691471            
0.40000000000000002             0                              1.1000000000000001            
0.40000000000000002             0.10000000000000001            1.1158746265024382            
0.40000000000000002             0.20000000000000001            1.1349630053563982            
0.40000000000000002             0.30000000000000004            1.1554061706784964            
0.40000000000000002             0.40000000000000002            1.1758832527738285            
0.40000000000000002             0.5                            1.1961854717149198            
0.40000000000000002             0.60000000000000009            1.2165417322205412            
0.40000000000000002             0.70000000000000007            1.2370857718117525            
0.40000000000000002             0.80000000000000004            1.2576504548779133            
0.40000000000000002             0.90000000000000002            1.277997086308964             
0.5                             0                              1.1000000000000001            
0.5                             0.10000000000000001            1.1205277436112318            
0.5                             0.20000000000000001            1.1441080206367944            
0.5                             0.30000000000000004            1.1692992086111591            
0.5                             0.40000000000000002            1.1947637499650814            
0.5                             0.5                            1.2200886319702444            
0.5                             0.60000000000000009            1.2454141932055265            
0.5                             0.70000000000000007            1.2708429805487329            
0.5                             0.80000000000000004            1.2962239983804662            
0.5                             0.90000000000000002            1.3214951694798796            
0.60000000000000009             0                              1.1000000000000001            
0.60000000000000009             0.10000000000000001            1.1253511361319564            
0.60000000000000009             0.20000000000000001            1.1534814669374667            
0.60000000000000009             0.30000000000000004            1.1833335004860543            
0.60000000000000009             0.40000000000000002            1.2136844415176442            
0.60000000000000009             0.5                            1.2439633013951066            
0.60000000000000009             0.60000000000000009            1.2741758019702434            
0.60000000000000009             0.70000000000000007            1.3043737268951385            
0.60000000000000009             0.80000000000000004            1.3344577284556653            
0.60000000000000009             0.90000000000000002            1.3645440007180882            
0.70000000000000007             0                              1.1000000000000001            
0.70000000000000007             0.10000000000000001            1.1303380866418329            
0.70000000000000007             0.20000000000000001            1.1631018550413352            
0.70000000000000007             0.30000000000000004            1.1975614742207183            
0.70000000000000007             0.40000000000000002            1.2326909253110083            
0.70000000000000007             0.5                            1.267826782102955             
0.70000000000000007             0.60000000000000009            1.3028228652661502            
0.70000000000000007             0.70000000000000007            1.3376669709051607            
0.70000000000000007             0.80000000000000004            1.3723271085863042            
0.70000000000000007             0.90000000000000002            1.4070769518129351            
0.80000000000000004             0                              1.1000000000000001            
0.80000000000000004             0.10000000000000001            1.1355245076659937            
0.80000000000000004             0.20000000000000001            1.1730070050647423            
0.80000000000000004             0.30000000000000004            1.212035167435243             
0.80000000000000004             0.40000000000000002            1.2518300577874792            
0.80000000000000004             0.5                            1.2916990197395732            
0.80000000000000004             0.60000000000000009            1.3313524193508854            
0.80000000000000004             0.70000000000000007            1.3707110757518306            
0.80000000000000004             0.80000000000000004            1.4098163535283099            
0.80000000000000004             0.90000000000000002            1.4490582933160501            
0.90000000000000002             0                              1.1000000000000001            
0.90000000000000002             0.10000000000000001            1.1412861807343273            
0.90000000000000002             0.20000000000000001            1.1835895802718319            
0.90000000000000002             0.30000000000000004            1.2270230807009037            
0.90000000000000002             0.40000000000000002            1.2712658180948107            
0.90000000000000002             0.5                            1.3156865603955121            
0.90000000000000002             0.60000000000000009            1.3598728903438659            
0.90000000000000002             0.70000000000000007            1.4036953334066642            
0.90000000000000002             0.80000000000000004            1.4472462521575711            
0.90000000000000002             0.90000000000000002            1.490803609593417             