TITLE = 'DEM DATA | DEM DATA | DEM DATA | DEM DATA'
VARIABLES = 'X' 'Y' 'E' 
ZONE T='SubZone'
I=20 J=20 K=1 ZONETYPE=Ordered
DATAPACKING=POINT
DT=(SINGLE SINGLE SINGLE )
0                               0                              1.1000000000000001            
0                               0.050000000000000003           1.1000000000000001            
0                               0.10000000000000001            1.1000000000000001            
0                               0.15000000000000002            1.1000000000000001            
0                               0.20000000000000001            1.1000000000000001            
0                               0.25                           1.1000000000000001            
0                               0.30000000000000004            1.1000000000000001            
0                               0.35000000000000003            1.1000000000000001            
0                               0.40000000000000002            1.1000000000000001            
0                               0.45000000000000001            1.1000000000000001            
0                               0.5                            1.1000000000000001            
0                               0.55000000000000004            1.1000000000000001            
0                               0.60000000000000009            1.1000000000000001            
0                               0.65000000000000002            1.1000000000000001            
0                               0.70000000000000007            1.1000000000000001            
0                               0.75                           1.1000000000000001            
0                               0.80000000000000004            1.1000000000000001            
0                               0.85000000000000009            1.1000000000000001            
0                               0.90000000000000002            1.1000000000000001            
0                               0.95000000000000007            1.1000000000000001            
0.050000000000000003            0                              1.1000000000000001            
0.050000000000000003            0.050000000000000003           1.1021253140483163            
0.050000000000000003            0.10000000000000001            1.1046286998831254            
0.050000000000000003            0.15000000000000002            1.1071919296182435            
0.050000000000000003            0.20000000000000001            1.1097221699380877            
0.050000000000000003            0.25                           1.1122188298663982            
0.050000000000000003            0.30000000000000004            1.114694534346417             
0.050000000000000003            0.35000000000000003            1.1171595691643952            
0.050000000000000003            0.40000000000000002            1.1196214033456018            
0.050000000000000003            0.45000000000000001            1.1220862871699262            
0.050000000000000003            0.5                            1.1245598594952897            
0.050000000000000003            0.55000000000000004            1.127047225599535             
0.050000000000000003            0.60000000000000009            1.129552882195064             
0.050000000000000003            0.65000000000000002            1.1320806835087314            
0.050000000000000003            0.70000000000000007            1.1346340138753117            
0.050000000000000003            0.75                           1.1372164187219402            
0.050000000000000003            0.80000000000000004            1.1398327243318063            
0.050000000000000003            0.85000000000000009            1.1424860227230542            
0.050000000000000003            0.90000000000000002            1.1451511873620055            
0.050000000000000003            0.95000000000000007            1.147715538150911             
0.10000000000000001             0                              1.1000000000000001            
0.10000000000000001             0.050000000000000003           1.1043912754431791            
0.10000000000000001             0.10000000000000001            1.1093003565498629            
0.10000000000000001             0.15000000000000002            1.1143759510068054            
0.10000000000000001             0.20000000000000001            1.1194290121225858            
0.10000000000000001             0.25                           1.1244247081622614            
0.10000000000000001             0.30000000000000004            1.1293789230029179            
0.10000000000000001             0.35000000000000003            1.1343107095727862            
0.10000000000000001             0.40000000000000002            1.139234601460543             
0.10000000000000001             0.45000000000000001            1.1441622982874133            
0.10000000000000001             0.5                            1.1491041309850294            
0.10000000000000001             0.55000000000000004            1.1540696459486481            
0.10000000000000001             0.60000000000000009            1.1590678054695893            
0.10000000000000001             0.65000000000000002            1.1641071167617025            
0.10000000000000001             0.70000000000000007            1.1691959282656341            
0.10000000000000001             0.75                           1.1743429621479158            
0.10000000000000001             0.80000000000000004            1.1795556741800413            
0.10000000000000001             0.85000000000000009            1.1848241398281241            
0.10000000000000001             0.90000000000000002            1.1900722636301151            
0.10000000000000001             0.95000000000000007            1.1951201030916576            
0.15000000000000002             0                              1.1000000000000001            
0.15000000000000002             0.050000000000000003           1.1067239056549896            
0.15000000000000002             0.10000000000000001            1.1140177491063596            
0.15000000000000002             0.15000000000000002            1.1215643217209779            
0.15000000000000002             0.20000000000000001            1.1291236180129549            
0.15000000000000002             0.25                           1.1366153533778174            
0.15000000000000002             0.30000000000000004            1.1440458390235662            
0.15000000000000002             0.35000000000000003            1.1514397230565161            
0.15000000000000002             0.40000000000000002            1.158818527472665             
0.15000000000000002             0.45000000000000001            1.1661996717183924            
0.15000000000000002             0.5                            1.1735983446752964            
0.15000000000000002             0.55000000000000004            1.1810285782619232            
0.15000000000000002             0.60000000000000009            1.1885037187869276            
0.15000000000000002             0.65000000000000002            1.1960367317629803            
0.15000000000000002             0.70000000000000007            1.2036405473578571            
0.15000000000000002             0.75                           1.2113275545384565            
0.15000000000000002             0.80000000000000004            1.2191018727122733            
0.15000000000000002             0.85000000000000009            1.2269295125368265            
0.15000000000000002             0.90000000000000002            1.2346891748075068            
0.15000000000000002             0.95000000000000007            1.2421986520983714            
0.20000000000000001             0                              1.1000000000000001            
0.20000000000000001             0.050000000000000003           1.109094272171397             
0.20000000000000001             0.10000000000000001            1.1187733234461752            
0.20000000000000001             0.15000000000000002            1.1287641374873585            
0.20000000000000001             0.20000000000000001            1.1388100743750194            
0.20000000000000001             0.25                           1.1487905657991284            
0.20000000000000001             0.30000000000000004            1.1586931496296717            
0.20000000000000001             0.35000000000000003            1.1685430244633277            
0.20000000000000001             0.40000000000000002            1.1783676586879088            
0.20000000000000001             0.45000000000000001            1.1881901359481737            
0.20000000000000001             0.5                            1.1980304536121997            
0.20000000000000001             0.55000000000000004            1.2079070035787107            
0.20000000000000001             0.60000000000000009            1.2178373548579597            
0.20000000000000001             0.65000000000000002            1.2278386987555443            
0.20000000000000001             0.70000000000000007            1.2379278689470647            
0.20000000000000001             0.75                           1.2481183565994631            
0.20000000000000001             0.80000000000000004            1.2584047241143317            
0.20000000000000001             0.85000000000000009            1.2687253040138748            
0.20000000000000001             0.90000000000000002            1.2789331721503825            
0.20000000000000001             0.95000000000000007            1.2888841080519766            
0.25                            0                              1.1000000000000001            
0.25                            0.050000000000000003           1.1114893950310194            
0.25                            0.10000000000000001            1.1235597884643413            
0.25                            0.15000000000000002            1.1359785749006888            
0.25                            0.20000000000000001            1.1484922725546916            
0.25                            0.25                           1.1609508377949074            
0.25                            0.30000000000000004            1.1733188880146868            
0.25                            0.35000000000000003            1.1856167872924521            
0.25                            0.40000000000000002            1.1978759148401685            
0.25                            0.45000000000000001            1.2101245855948954            
0.25                            0.5                            1.2223874382957145            
0.25                            0.55000000000000004            1.2346870106466983            
0.25                            0.60000000000000009            1.2470448101131149            
0.25                            0.65000000000000002            1.2594817890872154            
0.25                            0.70000000000000007            1.2720174673412989            
0.25                            0.75                           1.2846631631011745            
0.25                            0.80000000000000004            1.2973993117850691            
0.25                            0.85000000000000009            1.3101395137607501            
0.25                            0.90000000000000002            1.3227320989578739            
0.25                            0.95000000000000007            1.3350905040521728            
0.30000000000000004             0                              1.1000000000000001            
0.30000000000000004             0.050000000000000003           1.1139025792718913            
0.30000000000000004             0.10000000000000001            1.1283716702387954            
0.30000000000000004             0.15000000000000002            1.1432086729863049            
0.30000000000000004             0.20000000000000001            1.1581733384282065            
0.30000000000000004             0.25                           1.1730970401420557            
0.30000000000000004             0.30000000000000004            1.1879213226965311            
0.30000000000000004             0.35000000000000003            1.2026571689847689            
0.30000000000000004             0.40000000000000002            1.2173371259859647            
0.30000000000000004             0.45000000000000001            1.2319938252838827            
0.30000000000000004             0.5                            1.2466561954972861            
0.30000000000000004             0.55000000000000004            1.2613505982637545            
0.30000000000000004             0.60000000000000009            1.2761020570928419            
0.30000000000000004             0.65000000000000002            1.2909345457769947            
0.30000000000000004             0.70000000000000007            1.3058685481337311            
0.30000000000000004             0.75                           1.3209098228007361            
0.30000000000000004             0.80000000000000004            1.3360225681713647            
0.30000000000000004             0.85000000000000009            1.351102440886695             
0.30000000000000004             0.90000000000000002            1.3660101521992136            
0.30000000000000004             0.95000000000000007            1.3807244385521593            
0.35000000000000003             0                              1.1000000000000001            
0.35000000000000003             0.050000000000000003           1.1163298989397212            
0.35000000000000003             0.10000000000000001            1.1332049966571647            
0.35000000000000003             0.15000000000000002            1.1504544093606741            
0.35000000000000003             0.20000000000000001            1.1678555314140329            
0.35000000000000003             0.25                           1.1852301190308681            
0.35000000000000003             0.30000000000000004            1.2024989039134635            
0.35000000000000003             0.35000000000000003            1.219660297488057             
0.35000000000000003             0.40000000000000002            1.2367449741773506            
0.35000000000000003             0.45000000000000001            1.2537884798737249            
0.35000000000000003             0.5                            1.2708234367009386            
0.35000000000000003             0.55000000000000004            1.2878795743230897            
0.35000000000000003             0.60000000000000009            1.3049848459401765            
0.35000000000000003             0.65000000000000002            1.3221652059693185            
0.35000000000000003             0.70000000000000007            1.3394400146916563            
0.35000000000000003             0.75                           1.3568065466512942            
0.35000000000000003             0.80000000000000004            1.3742130204021388            
0.35000000000000003             0.85000000000000009            1.3915453643658224            
0.35000000000000003             0.90000000000000002            1.4086890518205071            
0.35000000000000003             0.95000000000000007            1.4256895533512126            
0.40000000000000002             0                              1.1000000000000001            
0.40000000000000002             0.050000000000000003           1.1187687766335519            
0.40000000000000002             0.10000000000000001            1.138056791043756             
0.40000000000000002             0.15000000000000002            1.1577152247660434            
0.40000000000000002             0.20000000000000001            1.1775403184908548            
0.40000000000000002             0.25                           1.1973508713455092            
0.40000000000000002             0.30000000000000004            1.2170501690363671            
0.40000000000000002             0.35000000000000003            1.2366222555760389            
0.40000000000000002             0.40000000000000002            1.2560929630895994            
0.40000000000000002             0.45000000000000001            1.2754989444903966            
0.40000000000000002             0.5                            1.2948756307196041            
0.40000000000000002             0.55000000000000004            1.3142554931680741            
0.40000000000000002             0.60000000000000009            1.3336686374067759            
0.40000000000000002             0.65000000000000002            1.3531416678810126            
0.40000000000000002             0.70000000000000007            1.3726905503373084            
0.40000000000000002             0.75                           1.3923021077191047            
0.40000000000000002             0.80000000000000004            1.411910467883597             
0.40000000000000002             0.85000000000000009            1.431400000571077             
0.40000000000000002             0.90000000000000002            1.4506891300064992            
0.40000000000000002             0.95000000000000007            1.4698885742085277            
0.45000000000000001             0                              1.1000000000000001            
0.45000000000000001             0.050000000000000003           1.1212173473444056            
0.45000000000000001             0.10000000000000001            1.1429246893708238            
0.45000000000000001             0.15000000000000002            1.1649902503361806            
0.45000000000000001             0.20000000000000001            1.187228482056101             
0.45000000000000001             0.25                           1.2094597954625845            
0.45000000000000001             0.30000000000000004            1.2315736384588087            
0.45000000000000001             0.35000000000000003            1.253539055831419             
0.45000000000000001             0.40000000000000002            1.2753743989956161            
0.45000000000000001             0.45000000000000001            1.2971153488786369            
0.45000000000000001             0.5                            1.3187989582172315            
0.45000000000000001             0.55000000000000004            1.3404596051804805            
0.45000000000000001             0.60000000000000009            1.3621285580988374            
0.45000000000000001             0.65000000000000002            1.3838315004637738            
0.45000000000000001             0.70000000000000007            1.4055787816507506            
0.45000000000000001             0.75                           1.4273458917872319            
0.45000000000000001             0.80000000000000004            1.4490557243073605            
0.45000000000000001             0.85000000000000009            1.4705983613198117            
0.45000000000000001             0.90000000000000002            1.4919301527677871            
0.45000000000000001             0.95000000000000007            1.5132244110648305            
0.5                             0                              1.1000000000000001            
0.5                             0.050000000000000003           1.1236741481393091            
0.5                             0.10000000000000001            1.1478066921575909            
0.5                             0.15000000000000002            1.1722783981817271            
0.5                             0.20000000000000001            1.1969202146716442            
0.5                             0.25                           1.2215570038261756            
0.5                             0.30000000000000004            1.2460677180916286            
0.5                             0.35000000000000003            1.2704066045019353            
0.5                             0.40000000000000002            1.2945823799190161            
0.5                             0.45000000000000001            1.31862753698006              
0.5                             0.5                            1.3425792809032013            
0.5                             0.55000000000000004            1.3664728225946243            
0.5                             0.60000000000000009            1.3903393804731783            
0.5                             0.65000000000000002            1.4142019636046701            
0.5                             0.70000000000000007            1.4380634421710623            
0.5                             0.75                           1.4618879227686106            
0.5                             0.80000000000000004            1.4855904519092435            
0.5                             0.85000000000000009            1.5090728013888179            
0.5                             0.90000000000000002            1.5323319329063316            
0.5                             0.95000000000000007            1.5556008555341183            
0.55000000000000004             0                              1.1000000000000001            
0.55000000000000004             0.050000000000000003           1.1261379577911808            
0.55000000000000004             0.10000000000000001            1.1527010137721361            
0.55000000000000004             0.15000000000000002            1.1795783975941661            
0.55000000000000004             0.20000000000000001            1.2066151941743744            
0.55000000000000004             0.25                           1.2336421778781477            
0.55000000000000004             0.30000000000000004            1.2605306159409537            
0.55000000000000004             0.35000000000000003            1.2872206615487654            
0.55000000000000004             0.40000000000000002            1.3137097891272485            
0.55000000000000004             0.45000000000000001            1.3400250601618036            
0.55000000000000004             0.5                            1.3662021261140627            
0.55000000000000004             0.55000000000000004            1.3922757032854522            
0.55000000000000004             0.60000000000000009            1.4182755254014301            
0.55000000000000004             0.65000000000000002            1.444220072811589             
0.55000000000000004             0.70000000000000007            1.470103495360098             
0.55000000000000004             0.75                           1.4958788899412807            
0.55000000000000004             0.80000000000000004            1.5214570843593345            
0.55000000000000004             0.85000000000000009            1.5467561532985705            
0.55000000000000004             0.90000000000000002            1.5718148083137944            
0.55000000000000004             0.95000000000000007            1.5969230881921028            
0.60000000000000009             0                              1.1000000000000001            
0.60000000000000009             0.050000000000000003           1.1286077135882793            
0.60000000000000009             0.10000000000000001            1.1576059973774457            
0.60000000000000009             0.15000000000000002            1.1868888153637966            
0.60000000000000009             0.20000000000000001            1.2163126447697565            
0.60000000000000009             0.25                           1.2457145504204179            
0.60000000000000009             0.30000000000000004            1.2749602721102167            
0.60000000000000009             0.35000000000000003            1.3039768188889549            
0.60000000000000009             0.40000000000000002            1.3327492777683601            
0.60000000000000009             0.45000000000000001            1.36129717978884              
0.60000000000000009             0.5                            1.3896526858444236            
0.60000000000000009             0.55000000000000004            1.4178484477993469            
0.60000000000000009             0.60000000000000009            1.4459110440145375            
0.60000000000000009             0.65000000000000002            1.4738528001054136            
0.60000000000000009             0.70000000000000007            1.5016581866468639            
0.60000000000000009             0.75                           1.5292701680825103            
0.60000000000000009             0.80000000000000004            1.5565988181449413            
0.60000000000000009             0.85000000000000009            1.5835819032133926            
0.60000000000000009             0.90000000000000002            1.6103000396060205            
0.60000000000000009             0.95000000000000007            1.6370980913155797            
0.65000000000000002             0                              1.1000000000000001            
0.65000000000000002             0.050000000000000003           1.1310824811974687            
0.65000000000000002             0.10000000000000001            1.1625200813777667            
0.65000000000000002             0.15000000000000002            1.1942080798150045            
0.65000000000000002             0.20000000000000001            1.2260113921942981            
0.65000000000000002             0.25                           1.2577729082372955            
0.65000000000000002             0.30000000000000004            1.2893543153545655            
0.65000000000000002             0.35000000000000003            1.3206704694948777            
0.65000000000000002             0.40000000000000002            1.3516932742149297            
0.65000000000000002             0.45000000000000001            1.382432842178021             
0.65000000000000002             0.5                            1.4129157935617722            
0.65000000000000002             0.55000000000000004            1.4431708530416938            
0.65000000000000002             0.60000000000000009            1.4732197422339075            
0.65000000000000002             0.65000000000000002            1.5030671648610039            
0.65000000000000002             0.70000000000000007            1.5326871443347729            
0.65000000000000002             0.75                           1.5620138435519058            
0.65000000000000002             0.80000000000000004            1.590959653533691             
0.65000000000000002             0.85000000000000009            1.6194843934649521            
0.65000000000000002             0.90000000000000002            1.6477101782113044            
0.65000000000000002             0.95000000000000007            1.6760350361486325            
0.70000000000000007             0                              1.1000000000000001            
0.70000000000000007             0.050000000000000003           1.133561512646587             
0.70000000000000007             0.10000000000000001            1.1674418481864437            
0.70000000000000007             0.15000000000000002            1.201534535557917             
0.70000000000000007             0.20000000000000001            1.2357099252421613            
0.70000000000000007             0.25                           1.2698156126289162            
0.70000000000000007             0.30000000000000004            1.3037100379541215            
0.70000000000000007             0.35000000000000003            1.3372967738484514            
0.70000000000000007             0.40000000000000002            1.3705340195121545            
0.70000000000000007             0.45000000000000001            1.403420735076075             
0.70000000000000007             0.5                            1.4359759333923661            
0.70000000000000007             0.55000000000000004            1.4682224482317536            
0.70000000000000007             0.60000000000000009            1.5001753590929388            
0.70000000000000007             0.65000000000000002            1.5318302849679828            
0.70000000000000007             0.70000000000000007            1.5631504661142539            
0.70000000000000007             0.75                           1.5940627582355078            
0.70000000000000007             0.80000000000000004            1.6244844857607448            
0.70000000000000007             0.85000000000000009            1.6543990927954602            
0.70000000000000007             0.90000000000000002            1.6839695422904444            
0.70000000000000007             0.95000000000000007            1.7136458111225032            
0.75                            0                              1.1000000000000001            
0.75                            0.050000000000000003           1.1360446295027689            
0.75                            0.10000000000000001            1.1723703774563454            
0.75                            0.15000000000000002            1.2088666499391505            
0.75                            0.20000000000000001            1.2454065095635964            
0.75                            0.25                           1.2818406462065284            
0.75                            0.30000000000000004            1.3180243904019553            
0.75                            0.35000000000000003            1.3538506470305292            
0.75                            0.40000000000000002            1.3892635482956477            
0.75                            0.45000000000000001            1.4242493614706093            
0.75                            0.5                            1.45881742664395              
0.75                            0.55000000000000004            1.492982629442648             
0.75                            0.60000000000000009            1.5267515669041718            