TITLE = 'DEM DATA | DEM DATA | DEM DATA | DEM DATA'
VARIABLES = 'X' 'Y' 'E' 
ZONE T='SubZone'
I=20 J=20 K=1 ZONETYPE=Ordered
DATAPACKING=POINT
DT=(SINGLE SINGLE SINGLE )
0                               0                              0                             
0                               0.050000000000000002776        0                             
0                               0.10000000000000000555         0                             
0                               0.1500000000000000222          0                             
0                               0.2000000000000000111          0                             
0                               0.25                           0                             
0                               0.30000000000000004441         0                             
0                               0.35000000000000003331         0                             
0                               0.4000000000000000222          0                             
0                               0.4500000000000000111          0                             
0                               0.5                            0                             
0                               0.55000000000000004441         0                             
0                               0.60000000000000008882         0                             
0                               0.6500000000000000222          0                             
0                               0.70000000000000006661         0                             
0                               0.75                           0                             
0                               0.80000000000000004441         0                             
0                               0.85000000000000008882         0                             
0                               0.9000000000000000222          0                             
0                               0.95000000000000006661         0                             
0.050000000000000002776         0                              0                             
0.050000000000000002776         0.050000000000000002776        0.00039845592858189782248     
0.050000000000000002776         0.10000000000000000555         0.00041985692151524922622     
0.050000000000000002776         0.1500000000000000222          0.00038141709131234158292     
0.050000000000000002776         0.2000000000000000111          0.00037570178151580257975     
0.050000000000000002776         0.25                           0.00040331327089049295864     
0.050000000000000002776         0.30000000000000004441         0.00045167037457627401409     
0.050000000000000002776         0.35000000000000003331         0.00051053267917033906542     
0.050000000000000002776         0.4000000000000000222          0.00057247343014776852499     
0.050000000000000002776         0.4500000000000000111          0.0006312841845439454147      
0.050000000000000002776         0.5                            0.00068136722584499764821     
0.050000000000000002776         0.55000000000000004441         0.00071765572549220557619     
0.050000000000000002776         0.60000000000000008882         0.00073568661299039384005     
0.050000000000000002776         0.6500000000000000222          0.00073163355515237782356     
0.050000000000000002776         0.70000000000000006661         0.00070213633192905966496     
0.050000000000000002776         0.75                           0.00064367857662106509054     
0.050000000000000002776         0.80000000000000004441         0.00055149076862748280803     
0.050000000000000002776         0.85000000000000008882         0.00042258640954373483112     
0.050000000000000002776         0.9000000000000000222          0.00028206865559199378879     
0.050000000000000002776         0.95000000000000006661         0.00024183576448999488662     
0.10000000000000000555          0                              0                             
0.10000000000000000555          0.050000000000000002776        0.00065665170908824066487     
0.10000000000000000555          0.10000000000000000555         0.00079672066275771058486     
0.10000000000000000555          0.1500000000000000222          0.0007702473397475095851      
0.10000000000000000555          0.2000000000000000111          0.00076561265239538656147     
0.10000000000000000555          0.25                           0.00081747605192883376901     
0.10000000000000000555          0.30000000000000004441         0.00090993011139439694546     
0.10000000000000000555          0.35000000000000003331         0.0010239097050304124537      
0.10000000000000000555          0.4000000000000000222          0.0011448593430569697915      
0.10000000000000000555          0.4500000000000000111          0.0012610520565492500111      
0.10000000000000000555          0.5                            0.001362127530870615999       
0.10000000000000000555          0.55000000000000004441         0.0014385088585693317498      
0.10000000000000000555          0.60000000000000008882         0.0014812022513268630064      
0.10000000000000000555          0.6500000000000000222          0.0014816690652188491129      
0.10000000000000000555          0.70000000000000006661         0.0014315343476101194398      
0.10000000000000000555          0.75                           0.001322068233666540138       
0.10000000000000000555          0.80000000000000004441         0.0011458392099881198334      
0.10000000000000000555          0.85000000000000008882         0.00091274868398993902474     
0.10000000000000000555          0.9000000000000000222          0.00069845613204688739017     
0.10000000000000000555          0.95000000000000006661         0.00068159168063108843683     
0.1500000000000000222           0                              0                             
0.1500000000000000222           0.050000000000000002776        0.00084832296658432504444     
0.1500000000000000222           0.10000000000000000555         0.0011276883965574135971      
0.1500000000000000222           0.1500000000000000222          0.0011538276114935186456      
0.1500000000000000222           0.2000000000000000111          0.0011656153875039265699      
0.1500000000000000222           0.25                           0.0012427444449627511602      
0.1500000000000000222           0.30000000000000004441         0.0013785791317024731484      
0.1500000000000000222           0.35000000000000003331         0.001548200868421112375       
0.1500000000000000222           0.4000000000000000222          0.0017298096462665668582      
0.1500000000000000222           0.4500000000000000111          0.0019056992775108305693      
0.1500000000000000222           0.5                            0.0020603912404597579666      
0.1500000000000000222           0.55000000000000004441         0.0021795642361803757581      
0.1500000000000000222           0.60000000000000008882         0.0022495846627121895978      
0.1500000000000000222           0.6500000000000000222          0.0022572049241484926085      
0.1500000000000000222           0.70000000000000006661         0.0021892259902145383421      
0.1500000000000000222           0.75                           0.0020330155550121187247      
0.1500000000000000222           0.80000000000000004441         0.0017842058313943809367      
0.1500000000000000222           0.85000000000000008882         0.0014763485623316974227      
0.1500000000000000222           0.9000000000000000222          0.0012297637429283803101      
0.1500000000000000222           0.95000000000000006661         0.0012253911041804066429      
0.2000000000000000111           0                              0                             
0.2000000000000000111           0.050000000000000002776        0.0010022934550684148292      
0.2000000000000000111           0.10000000000000000555         0.0014201551629107189711      
0.2000000000000000111           0.1500000000000000222          0.001524639117624682072       
0.2000000000000000111           0.2000000000000000111          0.0015705967134305165445      
0.2000000000000000111           0.25                           0.0016773025084682036123      
0.2000000000000000111           0.30000000000000004441         0.0018562732721287833471      
0.2000000000000000111           0.35000000000000003331         0.0020814791509000674097      
0.2000000000000000111           0.4000000000000000222          0.0023246276744688376681      
0.2000000000000000111           0.4500000000000000111          0.0025618019547113402012      
0.2000000000000000111           0.5                            0.0027721680256336256321      
0.2000000000000000111           0.55000000000000004441         0.0029364995676213201392      
0.2000000000000000111           0.60000000000000008882         0.0030363992076540835541      
0.2000000000000000111           0.6500000000000000222          0.0030538584650257050157      
0.2000000000000000111           0.70000000000000006661         0.0029712462323669974751      
0.2000000000000000111           0.75                           0.0027742910693979716541      
0.2000000000000000111           0.80000000000000004441         0.0024675750064642176795      
0.2000000000000000111           0.85000000000000008882         0.0021116115752863873212      
0.2000000000000000111           0.9000000000000000222          0.0018517558763493369156      
0.2000000000000000111           0.95000000000000006661         0.0018312464640950487649      
0.25                            0                              0                             
0.25                            0.050000000000000002776        0.001131481360068464781       
0.25                            0.10000000000000000555         0.0016812507577050883611      
0.25                            0.1500000000000000222          0.0018790675141682200433      
0.25                            0.2000000000000000111          0.0019756350493789209821      
0.25                            0.25                           0.002118640894542611619       
0.25                            0.30000000000000004441         0.0023414999621096388438      
0.25                            0.35000000000000003331         0.0026220561134111530777      
0.25                            0.4000000000000000222          0.0029271722728376747824      
0.25                            0.4500000000000000111          0.0032267715320739576157      
0.25                            0.5                            0.0034944510792511707109      
0.25                            0.55000000000000004441         0.0037059143680513439989      
0.25                            0.60000000000000008882         0.0038379064222415770757      
0.25                            0.6500000000000000222          0.0038677452456037375583      
0.25                            0.70000000000000006661         0.0037742039131964943977      
0.25                            0.75                           0.0035442490862893638592      
0.25                            0.80000000000000004441         0.0031955790690343377491      
0.25                            0.85000000000000008882         0.002812406602301642522       
0.25                            0.9000000000000000222          0.0025441418265763626749      
0.25                            0.95000000000000006661         0.0024765736025043061375      
0.30000000000000004441          0                              0                             
0.30000000000000004441          0.050000000000000002776        0.0012425378841653955675      
0.30000000000000004441          0.10000000000000000555         0.0019162908302825520934      
0.30000000000000004441          0.1500000000000000222          0.0022156264455932550561      
0.30000000000000004441          0.2000000000000000111          0.0023765685104282230355      
0.30000000000000004441          0.25                           0.002563869480162184189       
0.30000000000000004441          0.30000000000000004441         0.0028325097138299781818      
0.30000000000000004441          0.35000000000000003331         0.0031682602862368458574      
0.30000000000000004441          0.4000000000000000222          0.0035353987786270746341      
0.30000000000000004441          0.4500000000000000111          0.0038981265172450818568      
0.30000000000000004441          0.5                            0.0042243504935290943081      
0.30000000000000004441          0.55000000000000004441         0.0044845553074799315851      
0.30000000000000004441          0.60000000000000008882         0.004650582507417011513       
0.30000000000000004441          0.6500000000000000222          0.004695348902874485475       
0.30000000000000004441          0.70000000000000006661         0.0045952817216594610272      
0.30000000000000004441          0.75                           0.0043414885469761355097      
0.30000000000000004441          0.80000000000000004441         0.0039664368049463494259      
0.30000000000000004441          0.85000000000000008882         0.0035708972530819060864      
0.30000000000000004441          0.9000000000000000222          0.0032909946320007765763      
0.30000000000000004441          0.95000000000000006661         0.0031471264559104206171      
0.35000000000000003331          0                              0                             
0.35000000000000003331          0.050000000000000002776        0.0013393527083271905553      
0.35000000000000003331          0.10000000000000000555         0.0021290915936167387201      
0.35000000000000003331          0.1500000000000000222          0.0025338845655309416571      
0.35000000000000003331          0.2000000000000000111          0.0027700953385469961887      
0.35000000000000003331          0.25                           0.0030100193561890531413      
0.35000000000000003331          0.30000000000000004441         0.0033273697969431470511      
0.35000000000000003331          0.35000000000000003331         0.0037184515433341669421      
0.35000000000000003331          0.4000000000000000222          0.0041474195844288797019      
0.35000000000000003331          0.4500000000000000111          0.0045735868634098064689      
0.35000000000000003331          0.5                            0.0049592033959329206994      
0.35000000000000003331          0.55000000000000004441         0.0052694318895079028664      
0.35000000000000003331          0.60000000000000008882         0.0054712414601891801169      
0.35000000000000003331          0.6500000000000000222          0.0055336348468544294121      
0.35000000000000003331          0.70000000000000006661         0.0054322239260164995045      
0.35000000000000003331          0.75                           0.0051646244640055627428      
0.35000000000000003331          0.80000000000000004441         0.0047773106632051920428      
0.35000000000000003331          0.85000000000000008882         0.0043789881001776720382      
0.35000000000000003331          0.9000000000000000222          0.0040797818491138393426      
0.35000000000000003331          0.95000000000000006661         0.0038328200154726932425      
0.4000000000000000222           0                              0                             
0.4000000000000000222           0.050000000000000002776        0.001424470177287640027       
0.4000000000000000222           0.10000000000000000555         0.0023224747983805471563      
0.4000000000000000222           0.1500000000000000222          0.0028339425884300606384      
0.4000000000000000222           0.2000000000000000111          0.0031536999622536754373      
0.4000000000000000222           0.25                           0.0034542668679058419201      
0.4000000000000000222           0.30000000000000004441         0.0038240587565023798078      
0.4000000000000000222           0.35000000000000003331         0.0042710378101762369596      
0.4000000000000000222           0.4000000000000000222          0.0047615370334146422948      
0.4000000000000000222           0.4500000000000000111          0.005251129014420818919       
0.4000000000000000222           0.5                            0.0056966404953273652723      
0.4000000000000000222           0.55000000000000004441         0.0060578943527265227686      
0.4000000000000000222           0.60000000000000008882         0.0062971260796005346094      
0.4000000000000000222           0.6500000000000000222          0.0063801198258479629999      
0.4000000000000000222           0.70000000000000006661         0.0062833079967619109851      
0.4000000000000000222           0.75                           0.0060121666752350755303      
0.4000000000000000222           0.80000000000000004441         0.0056247303777248180978      
0.4000000000000000222           0.85000000000000008882         0.0052290014358893355251      
0.4000000000000000222           0.9000000000000000222          0.0049004750461705270936      
0.4000000000000000222           0.95000000000000006661         0.0045259575392657680482      
0.4500000000000000111           0                              0                             
0.4500000000000000111           0.050000000000000002776        0.0014997235145279841362      
0.4500000000000000111           0.10000000000000000555         0.0024986494027849914801      
0.4500000000000000111           0.1500000000000000222          0.0031162067294767670234      
0.4500000000000000111           0.2000000000000000111          0.00352554540502114655        
0.4500000000000000111           0.25                           0.0038940823347215491879      
0.4500000000000000111           0.30000000000000004441         0.0043205706168218949159      
0.4500000000000000111           0.35000000000000003331         0.0048245011662937375974      
0.4500000000000000111           0.4000000000000000222          0.0053762650973063763615      
0.4500000000000000111           0.4500000000000000111          0.0059290267756963999091      
0.4500000000000000111           0.5                            0.0064346408600770566011      
0.4500000000000000111           0.55000000000000004441         0.0068476994798116752605      
0.4500000000000000111           0.60000000000000008882         0.0071259769353226865007      
0.4500000000000000111           0.6500000000000000222          0.007232899167594286638       
0.4500000000000000111           0.70000000000000006661         0.0071472372165184427928      
0.4500000000000000111           0.75                           0.0068825447347446999657      
0.4500000000000000111           0.80000000000000004441         0.0065049518925748284204      
0.4500000000000000111           0.85000000000000008882         0.0061139569318719999558      
0.4500000000000000111           0.9000000000000000222          0.0057449220553051905114      
0.4500000000000000111           0.95000000000000006661         0.005220383131744332772       
0.5                             0                              0                             
0.5                             0.050000000000000002776        0.001566544137154624039       
0.5                             0.10000000000000000555         0.002659458892813493236       
0.5                             0.1500000000000000222          0.0033812984012018265645      
0.5                             0.2000000000000000111          0.0038843788294626868662      
0.5                             0.25                           0.0043273173035438539102      
0.5                             0.30000000000000004441         0.0048150126796993042433      
0.5                             0.35000000000000003331         0.0053774350291138084401      
0.5                             0.4000000000000000222          0.0059903430110752609039      
0.5                             0.4500000000000000111          0.0066058771325723242285      
0.5                             0.5                            0.0071715722013874216856      
0.5                             0.55000000000000004441         0.0076370603631679134793      
0.5                             0.60000000000000008882         0.0079560767718604985532      
0.5                             0.6500000000000000222          0.0080906630129231604798      
0.5                             0.70000000000000006661         0.0080230328631567537911      
0.5                             0.75                           0.0077741575856069555783      
0.5                             0.80000000000000004441         0.0074142239663745890255      
0.5                             0.85000000000000008882         0.0070276625166914019616      
0.5                             0.9000000000000000222          0.0066064229474447344614      
0.5                             0.95000000000000006661         0.0059110282034260386297      
0.55000000000000004441          0                              0                             
0.55000000000000004441          0.050000000000000002776        0.0016261214463983986178      
0.55000000000000004441          0.10000000000000000555         0.0028065314328278301303      
0.55000000000000004441          0.1500000000000000222          0.003630018097007914335       
0.55000000000000004441          0.2000000000000000111          0.0042294567077700850888      
0.55000000000000004441          0.25                           0.0047522497130063623416      
0.55000000000000004441          0.30000000000000004441         0.0053056893682108530186      
0.55000000000000004441          0.35000000000000003331         0.005928585255566831691       
0.55000000000000004441          0.4000000000000000222          0.0066027446802257028224      
0.55000000000000004441          0.4500000000000000111          0.0072806126020092953866      
0.55000000000000004441          0.5                            0.0079062159635918671796      
0.55000000000000004441          0.55000000000000004441         0.008424678384076234039       
0.55000000000000004441          0.60000000000000008882         0.0087862724451164275763      
0.55000000000000004441          0.6500000000000000222          0.0089526688146970290205      
0.55000000000000004441          0.70000000000000006661         0.008909965843436618016       
0.55000000000000004441          0.75                           0.0086854211651394841454      
0.55000000000000004441          0.80000000000000004441         0.0083489660700506451718      
0.55000000000000004441          0.85000000000000008882         0.0079647172269017296742      
0.55000000000000004441          0.9000000000000000222          0.0074794362336008113346      
0.55000000000000004441          0.95000000000000006661         0.0065936414403966470132      
0.60000000000000008882          0                              0                             
0.60000000000000008882          0.050000000000000002776        0.0016794856757804677017      
0.60000000000000008882          0.10000000000000000555         0.0029413645330411686274      
0.60000000000000008882          0.1500000000000000222          0.0038633250705646382528      
0.60000000000000008882          0.2000000000000000111          0.0045604839850723610795      
0.60000000000000008882          0.25                           0.0051676017662056761282      
0.60000000000000008882          0.30000000000000004441         0.0057911725674746339365      
0.60000000000000008882          0.35000000000000003331         0.0064768738954588123136      
0.60000000000000008882          0.4000000000000000222          0.0072126985904605867006      
0.60000000000000008882          0.4500000000000000111          0.0079525043558017483036      
0.60000000000000008882          0.5                            0.0086377781385791330138      
0.60000000000000008882          0.55000000000000004441         0.0092097619599496027831      
0.60000000000000008882          0.60000000000000008882         0.0096160163385021757421      
0.60000000000000008882          0.6500000000000000222          0.0098185814709175200932      
0.60000000000000008882          0.70000000000000006661         0.0098075569313913479874      
0.60000000000000008882          0.75                           0.0096148221763103780546      
0.60000000000000008882          0.80000000000000004441         0.0093058773900560609604      
0.60000000000000008882          0.85000000000000008882         0.0089204714785151573153      
0.60000000000000008882          0.9000000000000000222          0.0083593616964141581605      
0.60000000000000008882          0.95000000000000006661         0.0072646074524269632633      
0.6500000000000000222           0                              0                             
0.6500000000000000222           0.050000000000000002776        0.0017275380128303208238      
0.6500000000000000222           0.10000000000000000555         0.0030653584683404400124      
0.6500000000000000222           0.1500000000000000222          0.0040823133072787065601      
0.6500000000000000222           0.2000000000000000111          0.004877559150645582875       
0.6500000000000000222           0.25                           0.0055725376468649390205      
0.6500000000000000222           0.30000000000000004441         0.0062703458125812350232      
0.6500000000000000222           0.35000000000000003331         0.0070214317835182171734      
0.6500000000000000222           0.4000000000000000222          0.0078196820719738102667      
0.6500000000000000222           0.4500000000000000111          0.0086211918734369064055      
0.6500000000000000222           0.5                            0.00936592125896007488        
0.6500000000000000222           0.55000000000000004441         0.0099920867837679505641      
0.6500000000000000222           0.60000000000000008882         0.01044526912884125025        
0.6500000000000000222           0.6500000000000000222          0.01068841980877555109        
0.6500000000000000222           0.70000000000000006661         0.010715529473115603665       
0.6500000000000000222           0.75                           0.010560965170876457364       
0.6500000000000000222           0.80000000000000004441         0.010281995575276425825       
0.6500000000000000222           0.85000000000000008882         0.0098909591402942531602      
0.6500000000000000222           0.9000000000000000222          0.0092423496066509347457      
0.6500000000000000222           0.95000000000000006661         0.0079207860786114636653      
0.70000000000000006661          0                              0                             
0.70000000000000006661          0.050000000000000002776        0.0017709937565957289962      
0.70000000000000006661          0.10000000000000000555         0.0031797683711036750509      
0.70000000000000006661          0.1500000000000000222          0.0042881571734501022775      
0.70000000000000006661          0.2000000000000000111          0.0051811130283001549657      
0.70000000000000006661          0.25                           0.0059666434275735813486      
0.70000000000000006661          0.30000000000000004441         0.0067424302666194702027      
0.70000000000000006661          0.35000000000000003331         0.0075616335528239098096      
0.70000000000000006661          0.4000000000000000222          0.0084233905395738606359      
0.70000000000000006661          0.4500000000000000111          0.0092866338583743601731      
0.70000000000000006661          0.5                            0.010090764838252663793       
0.70000000000000006661          0.55000000000000004441         0.01077187934821033366        
0.70000000000000006661          0.60000000000000008882         0.011274350210387584781       
0.70000000000000006661          0.6500000000000000222          0.01156254126223577039        
0.70000000000000006661          0.70000000000000006661         0.011633775819793301665       
0.70000000000000006661          0.75                           0.011522601377462304839       
0.70000000000000006661          0.80000000000000004441         0.011274704971520055352       
0.70000000000000006661          0.85000000000000008882         0.010872762001805424958       
0.70000000000000006661          0.9000000000000000222          0.010125003221050477009       
0.70000000000000006661          0.95000000000000006661         0.0085592108587180248946      
0.75                            0                              0                             
0.75                            0.050000000000000002776        0.0018100052477880712587      
0.75                            0.10000000000000000555         0.0032853565526465011715      
0.75                            0.1500000000000000222          0.004481907759032344174       
0.75                            0.2000000000000000111          0.0054717961038595053225      
0.75                            0.25                           0.0063498809610178508223      
0.75                            0.30000000000000004441         0.0072069910044223473022      
0.75                            0.35000000000000003331         0.0080971125680076028175      
0.75                            0.4000000000000000222          0.0090237593899960000243      
0.75                            0.4500000000000000111          0.0099490424872914484666      
0.75                            0.5                            0.010812714329294204063       
0.75                            0.55000000000000004441         0.011549701686544011636       
0.75                            0.60000000000000008882         0.012103960337026986593       
0.75                            0.6500000000000000222          0.012441568613675180188       
0.75                            0.70000000000000006661         0.012562329266270655381       
0.75                            0.75                           0.012498617925741140056       
0.75                            0.80000000000000004441         0.012281603866123091962       