TITLE = 'DEM DATA | DEM DATA | DEM DATA | DEM DATA'
VARIABLES = 'X' 'Y' 'E' 
ZONE T='SubZone'
I=20 J=20 K=1 ZONETYPE=Ordered
DATAPACKING=POINT
DT=(SINGLE SINGLE SINGLE )
0                               0                              0                             
0                               0.050000000000000002776        0                             
0                               0.10000000000000000555         0                             
0                               0.1500000000000000222          0                             
0                               0.2000000000000000111          0                             
0                               0.25                           0                             
0                               0.30000000000000004441         0                             
0                               0.35000000000000003331         0                             
0                               0.4000000000000000222          0                             
0                               0.4500000000000000111          0                             
0                               0.5                            0                             
0                               0.55000000000000004441         0                             
0                               0.60000000000000008882         0                             
0                               0.6500000000000000222          0                             
0                               0.70000000000000006661         0                             
0                               0.75                           0                             
0                               0.80000000000000004441         0                             
0                               0.85000000000000008882         0                             
0                               0.9000000000000000222          0                             
0                               0.95000000000000006661         0                             
0.050000000000000002776         0                              0                             
0.050000000000000002776         0.050000000000000002776        0.00036777344352079133216     
0.050000000000000002776         0.10000000000000000555         0.00038431581595843589128     
0.050000000000000002776         0.1500000000000000222          0.00034190619143426026483     
0.050000000000000002776         0.2000000000000000111          0.00032682235692771399727     
0.050000000000000002776         0.25                           0.00034036059574371613223     
0.050000000000000002776         0.30000000000000004441         0.00037144265404176479706     
0.050000000000000002776         0.35000000000000003331         0.00041137156110071515513     
0.050000000000000002776         0.4000000000000000222          0.00045418602066504831782     
0.050000000000000002776         0.4500000000000000111          0.00049513112235577416698     
0.050000000000000002776         0.5                            0.00053004391567612607616     
0.050000000000000002776         0.55000000000000004441         0.00055522362565230132248     
0.050000000000000002776         0.60000000000000008882         0.00056745199769880905194     
0.050000000000000002776         0.6500000000000000222          0.00056400377329568485152     
0.050000000000000002776         0.70000000000000006661         0.00054252788598474488424     
0.050000000000000002776         0.75                           0.00050065333206883444461     
0.050000000000000002776         0.80000000000000004441         0.00043552267137680900078     
0.050000000000000002776         0.85000000000000008882         0.00034759206836953993047     
0.050000000000000002776         0.9000000000000000222          0.00026225367181176295617     
0.050000000000000002776         0.95000000000000006661         0.00027030493601398752901     
0.10000000000000000555          0                              0                             
0.10000000000000000555          0.050000000000000002776        0.00060537616321121312524     
0.10000000000000000555          0.10000000000000000555         0.00072796434822253175412     
0.10000000000000000555          0.1500000000000000222          0.00068975224787481970168     
0.10000000000000000555          0.2000000000000000111          0.00066572545291854190452     
0.10000000000000000555          0.25                           0.00068948585002570617064     
0.10000000000000000555          0.30000000000000004441         0.00074778214052195757233     
0.10000000000000000555          0.35000000000000003331         0.00082448689300740340968     
0.10000000000000000555          0.4000000000000000222          0.00090773685028544548459     
0.10000000000000000555          0.4500000000000000111          0.00098835579650047300504     
0.10000000000000000555          0.5                            0.0010584766130752321089      
0.10000000000000000555          0.55000000000000004441         0.0011109805714226705931      
0.10000000000000000555          0.60000000000000008882         0.0011393025324850647451      
0.10000000000000000555          0.6500000000000000222          0.0011373349349759198645      
0.10000000000000000555          0.70000000000000006661         0.0010992732901682344959      
0.10000000000000000555          0.75                           0.0010194991378493778456      
0.10000000000000000555          0.80000000000000004441         0.00089476224040718754793     
0.10000000000000000555          0.85000000000000008882         0.0007384592214532137433      
0.10000000000000000555          0.9000000000000000222          0.00061844430403290573395     
0.10000000000000000555          0.95000000000000006661         0.00067705043703747413986     
0.1500000000000000222           0                              0                             
0.1500000000000000222           0.050000000000000002776        0.00078089382177859434364     
0.1500000000000000222           0.10000000000000000555         0.0010282002059478489997      
0.1500000000000000222           0.1500000000000000222          0.0010316364861968629896      
0.1500000000000000222           0.2000000000000000111          0.0010127387991680780743      
0.1500000000000000222           0.25                           0.0010473294901545138202      
0.1500000000000000222           0.30000000000000004441         0.0011315795957258512061      
0.1500000000000000222           0.35000000000000003331         0.0012447169468785546087      
0.1500000000000000222           0.4000000000000000222          0.0013688902732771346393      
0.1500000000000000222           0.4500000000000000111          0.0014901097921053985118      
0.1500000000000000222           0.5                            0.0015965237283350752762      
0.1500000000000000222           0.55000000000000004441         0.0016774264719210396635      
0.1500000000000000222           0.60000000000000008882         0.0017228391102859230699      
0.1500000000000000222           0.6500000000000000222          0.0017233003372416622057      
0.1500000000000000222           0.70000000000000006661         0.0016697721262262099629      
0.1500000000000000222           0.75                           0.0015545969084249655623      
0.1500000000000000222           0.80000000000000004441         0.0013787495804711280556      
0.1500000000000000222           0.85000000000000008882         0.0011766445078633669397      
0.1500000000000000222           0.9000000000000000222          0.0010528902794124661568      
0.1500000000000000222           0.95000000000000006661         0.0011545494691249658104      
0.2000000000000000111           0                              0                             
0.2000000000000000111           0.050000000000000002776        0.00092086164647020574137     
0.2000000000000000111           0.10000000000000000555         0.0012917078374641288718      
0.2000000000000000111           0.1500000000000000222          0.0013603840854836679597      
0.2000000000000000111           0.2000000000000000111          0.0013628959115943306557      
0.2000000000000000111           0.25                           0.0014120276231901485176      
0.2000000000000000111           0.30000000000000004441         0.0015214947759125685423      
0.2000000000000000111           0.35000000000000003331         0.0016702918122286636304      
0.2000000000000000111           0.4000000000000000222          0.0018353041233756250961      
0.2000000000000000111           0.4500000000000000111          0.0019975295788634550576      
0.2000000000000000111           0.5                            0.0021409248577723971607      
0.2000000000000000111           0.55000000000000004441         0.0022510671851894148432      
0.2000000000000000111           0.60000000000000008882         0.0023144806161159436897      
0.2000000000000000111           0.6500000000000000222          0.0023183533598769567874      
0.2000000000000000111           0.70000000000000006661         0.0022508260728879569967      
0.2000000000000000111           0.75                           0.0021041309151677012323      
0.2000000000000000111           0.80000000000000004441         0.0018880711598190380585      
0.2000000000000000111           0.85000000000000008882         0.001660346691694680743       
0.2000000000000000111           0.9000000000000000222          0.0015473835335617636133      
0.2000000000000000111           0.95000000000000006661         0.001673262729994462461       
0.25                            0                              0                             
0.25                            0.050000000000000002776        0.0010370912043269342462      
0.25                            0.10000000000000000555         0.0015248658163347084127      
0.25                            0.1500000000000000222          0.0016723780179423997083      
0.25                            0.2000000000000000111          0.0017113475817662759937      
0.25                            0.25                           0.0017809957788610386586      
0.25                            0.30000000000000004441         0.0019159310612313351641      
0.25                            0.35000000000000003331         0.0020995174297198104796      
0.25                            0.4000000000000000222          0.0023049274165301003592      
0.25                            0.4500000000000000111          0.0025082128463842501276      
0.25                            0.5                            0.0026889567293331140263      
0.25                            0.55000000000000004441         0.0028288845670776385788      
0.25                            0.60000000000000008882         0.0029109641294502441866      
0.25                            0.6500000000000000222          0.0029191509240251711788      
0.25                            0.70000000000000006661         0.0028395237474680978806      
0.25                            0.75                           0.0026665508359582368314      
0.25                            0.80000000000000004441         0.0024220871869835569612      
0.25                            0.85000000000000008882         0.0021845199791612479601      
0.25                            0.9000000000000000222          0.0020868225392538519714      
0.25                            0.95000000000000006661         0.0022171940885318264236      
0.30000000000000004441          0                              0                             
0.30000000000000004441          0.050000000000000002776        0.0011355840270204087261      
0.30000000000000004441          0.10000000000000000555         0.0017323291965827269934      
0.30000000000000004441          0.1500000000000000222          0.0019659105011071709157      
0.30000000000000004441          0.2000000000000000111          0.0020538786504911143993      
0.30000000000000004441          0.25                           0.0021512109559396197511      
0.30000000000000004441          0.30000000000000004441         0.002312972233560861568       
0.30000000000000004441          0.35000000000000003331         0.0025306076769038288177      
0.30000000000000004441          0.4000000000000000222          0.0027756848557360935814      
0.30000000000000004441          0.4500000000000000111          0.0030197357001382485464      
0.30000000000000004441          0.5                            0.0032378734807576581289      
0.30000000000000004441          0.55000000000000004441         0.0034078515591977609489      
0.30000000000000004441          0.60000000000000008882         0.0035090621358564444421      
0.30000000000000004441          0.6500000000000000222          0.0035224961533428800209      
0.30000000000000004441          0.70000000000000006661         0.0034332423516572063704      
0.30000000000000004441          0.75                           0.003240314470691618709       
0.30000000000000004441          0.80000000000000004441         0.0029789372494841703798      
0.30000000000000004441          0.85000000000000008882         0.0027428341197668348883      
0.30000000000000004441          0.9000000000000000222          0.0026593023028065321256      
0.30000000000000004441          0.95000000000000006661         0.002776188633724974153       
0.35000000000000003331          0                              0                             
0.35000000000000003331          0.050000000000000002776        0.0012197722448210601698      
0.35000000000000003331          0.10000000000000000555         0.0019173258679900939683      
0.35000000000000003331          0.1500000000000000222          0.0022401887418168620059      
0.35000000000000003331          0.2000000000000000111          0.0023869937267662066915      
0.35000000000000003331          0.25                           0.0025194836694002464839      
0.35000000000000003331          0.30000000000000004441         0.0027104221980760456745      
0.35000000000000003331          0.35000000000000003331         0.0029616838542341206164      
0.35000000000000003331          0.4000000000000000222          0.0032455145955245789935      
0.35000000000000003331          0.4500000000000000111          0.0035297169958539154067      
0.35000000000000003331          0.5                            0.0037849823088194067822      
0.35000000000000003331          0.55000000000000004441         0.0039850126509322070234      
0.35000000000000003331          0.60000000000000008882         0.004105669803104339266       
0.35000000000000003331          0.6500000000000000222          0.0041254188646622225178      
0.35000000000000003331          0.70000000000000006661         0.0040296290882941843137      
0.35000000000000003331          0.75                           0.0038237273412804473338      
0.35000000000000003331          0.80000000000000004441         0.0035558408835092425448      
0.35000000000000003331          0.85000000000000008882         0.0033287253960878615544      
0.35000000000000003331          0.9000000000000000222          0.0032553606909089261023      
0.35000000000000003331          0.95000000000000006661         0.0033430200901267692615      
0.4000000000000000222           0                              0                             
0.4000000000000000222           0.050000000000000002776        0.0012918254230718240194      
0.4000000000000000222           0.10000000000000000555         0.0020821230798429013475      
0.4000000000000000222           0.1500000000000000222          0.0024948490928973221514      
0.4000000000000000222           0.2000000000000000111          0.0027078430779947648688      
0.4000000000000000222           0.25                           0.0028826592309578735751      
0.4000000000000000222           0.30000000000000004441         0.0031058822039644606861      
0.4000000000000000222           0.35000000000000003331         0.0033907786368954084821      
0.4000000000000000222           0.4000000000000000222          0.003712385503002568754       
0.4000000000000000222           0.4500000000000000111          0.0040358552569439432034      
0.4000000000000000222           0.5                            0.0043276905770019968855      
0.4000000000000000222           0.55000000000000004441         0.0045575407368587672607      
0.4000000000000000222           0.60000000000000008882         0.0046978723051629422969      
0.4000000000000000222           0.6500000000000000222          0.0047252242261006660584      
0.4000000000000000222           0.70000000000000006661         0.0046265678598080839379      
0.4000000000000000222           0.75                           0.0044148767661373877758      
0.4000000000000000222           0.80000000000000004441         0.0041494392879453112499      
0.4000000000000000222           0.85000000000000008882         0.0039358939671116921488      
0.4000000000000000222           0.9000000000000000222          0.0038673339245740567804      
0.4000000000000000222           0.95000000000000006661         0.0039121551089278394642      
0.4500000000000000111           0                              0                             
0.4500000000000000111           0.050000000000000002776        0.0013532323725520267743      
0.4500000000000000111           0.10000000000000000555         0.0022283754837961744499      
0.4500000000000000111           0.1500000000000000222          0.0027297430417005941194      
0.4500000000000000111           0.2000000000000000111          0.0030141175467712777447      
0.4500000000000000111           0.25                           0.0032377480280432191506      
0.4500000000000000111           0.30000000000000004441         0.0034968404868542801722      
0.4500000000000000111           0.35000000000000003331         0.0038158506059586816406      
0.4500000000000000111           0.4000000000000000222          0.0041743062872328096091      
0.4500000000000000111           0.4500000000000000111          0.0045359549928458697821      
0.4500000000000000111           0.5                            0.0048635449353462423261      
0.4500000000000000111           0.55000000000000004441         0.0051227862676350710558      
0.4500000000000000111           0.60000000000000008882         0.0052829969220420380793      
0.4500000000000000111           0.6500000000000000222          0.0053195125102278861817      
0.4500000000000000111           0.70000000000000006661         0.0052221162291921086052      
0.4500000000000000111           0.75                           0.0050116604729775193761      
0.4500000000000000111           0.80000000000000004441         0.0047560876073584612556      
0.4500000000000000111           0.85000000000000008882         0.004558525459949835934       
0.4500000000000000111           0.9000000000000000222          0.0044889227766693462485      
0.4500000000000000111           0.95000000000000006661         0.0044791685448806184411      
0.5                             0                              0                             
0.5                             0.050000000000000002776        0.0014050810591128559679      
0.5                             0.10000000000000000555         0.0023573452399061611828      
0.5                             0.1500000000000000222          0.0029448457626239932239      
0.5                             0.2000000000000000111          0.003303954228865313425       
0.5                             0.25                           0.0035819998224726479208      
0.5                             0.30000000000000004441         0.0038807587359206419109      
0.5                             0.35000000000000003331         0.0042348089427839408216      
0.5                             0.4000000000000000222          0.0046293297495616503312      
0.5                             0.4500000000000000111          0.0050279422881638335951      
0.5                             0.5                            0.0053902606974938205298      
0.5                             0.55000000000000004441         0.0056783158833917379837      
0.5                             0.60000000000000008882         0.0058586477960547167498      
0.5                             0.6500000000000000222          0.0059061857203444034781      
0.5                             0.70000000000000006661         0.0058144513616664728062      
0.5                             0.75                           0.0056118458774856438964      
0.5                             0.80000000000000004441         0.0053720831164312254913      
0.5                             0.85000000000000008882         0.0051913892293566910041      
0.5                             0.9000000000000000222          0.0051149190142683043092      
0.5                             0.95000000000000006661         0.0050404408331434780166      
0.55000000000000004441          0                              0                             
0.55000000000000004441          0.050000000000000002776        0.0014482002585949338425      
0.55000000000000004441          0.10000000000000000555         0.0024700301379176892169      
0.55000000000000004441          0.1500000000000000222          0.0031402111932201659528      
0.55000000000000004441          0.2000000000000000111          0.0035758578150260067474      
0.55000000000000004441          0.25                           0.0039129392245773608749      
0.55000000000000004441          0.30000000000000004441         0.0042551460172319810482      
0.55000000000000004441          0.35000000000000003331         0.0046455438251831182583      
0.55000000000000004441          0.4000000000000000222          0.0050755553708274891989      
0.55000000000000004441          0.4500000000000000111          0.005509871375757757761       
0.55000000000000004441          0.5                            0.0059057411654779290444      
0.55000000000000004441          0.55000000000000004441         0.0062219391949167590639      
0.55000000000000004441          0.60000000000000008882         0.0064227244966068575138      
0.55000000000000004441          0.6500000000000000222          0.0064834324770135509652      
0.55000000000000004441          0.70000000000000006661         0.0064018428550998152105      
0.55000000000000004441          0.75                           0.0062131418149899975134      
0.55000000000000004441          0.80000000000000004441         0.0059938394072629463949      
0.55000000000000004441          0.85000000000000008882         0.0058298880296423494229      
0.55000000000000004441          0.9000000000000000222          0.0057410381627593931597      
0.55000000000000004441          0.95000000000000006661         0.0055929912292285166586      
0.60000000000000008882          0                              0                             
0.60000000000000008882          0.050000000000000002776        0.0014832332776002488117      
0.60000000000000008882          0.10000000000000000555         0.0025672327961046015332      
0.60000000000000008882          0.1500000000000000222          0.0033159399359343755265      
0.60000000000000008882          0.2000000000000000111          0.0038286318837301713813      
0.60000000000000008882          0.25                           0.0042283735970700675466      
0.60000000000000008882          0.30000000000000004441         0.0046176158524471322409      
0.60000000000000008882          0.35000000000000003331         0.0050459545802430394446      
0.60000000000000008882          0.4000000000000000222          0.0055111358387973652384      
0.60000000000000008882          0.4500000000000000111          0.0059799250364440670324      
0.60000000000000008882          0.5                            0.0064080875442653617569      
0.60000000000000008882          0.55000000000000004441         0.0067517252731541521626      
0.60000000000000008882          0.60000000000000008882         0.0069734416157851697449      
0.60000000000000008882          0.6500000000000000222          0.0070496626344584978341      
0.60000000000000008882          0.70000000000000006661         0.006982665081074479474       
0.60000000000000008882          0.75                           0.0068132838295977826704      
0.60000000000000008882          0.80000000000000004441         0.0066180259162353927138      
0.60000000000000008882          0.85000000000000008882         0.0064700943456172943513      
0.60000000000000008882          0.9000000000000000222          0.0063638208575407251288      
0.60000000000000008882          0.95000000000000006661         0.0061343812766487815225      
0.6500000000000000222           0                              0                             
0.6500000000000000222           0.050000000000000002776        0.0015106731405578610605      
0.6500000000000000222           0.10000000000000000555         0.002649592417629964558       
0.6500000000000000222           0.1500000000000000222          0.0034721475024350745286      
0.6500000000000000222           0.2000000000000000111          0.0040613143220613601159      
0.6500000000000000222           0.25                           0.0045263795935239770074      
0.6500000000000000222           0.30000000000000004441         0.0049659219280393518403      
0.6500000000000000222           0.35000000000000003331         0.0054339791335615839074      
0.6500000000000000222           0.4000000000000000222          0.0059342776472195435389      
0.6500000000000000222           0.4500000000000000111          0.0064364216053951484042      
0.6500000000000000222           0.5                            0.0068956120128598197283      
0.6500000000000000222           0.55000000000000004441         0.0072660287547197111024      
0.6500000000000000222           0.60000000000000008882         0.0075092926658248959626      
0.6500000000000000222           0.6500000000000000222          0.0076034890801954801987      
0.6500000000000000222           0.70000000000000006661         0.0075554062089082663078      
0.6500000000000000222           0.75                           0.0074101297943944821611      
0.6500000000000000222           0.80000000000000004441         0.007241690521046173501       
0.6500000000000000222           0.85000000000000008882         0.0071087870508723671747      
0.6500000000000000222           0.9000000000000000222          0.0069805717934308120221      
0.6500000000000000222           0.95000000000000006661         0.0066626474924840195513      
0.70000000000000006661          0                              0                             
0.70000000000000006661          0.050000000000000002776        0.0015308474342530242751      
0.70000000000000006661          0.10000000000000000555         0.0027175727238513136541      
0.70000000000000006661          0.1500000000000000222          0.0036089226637265880981      
0.70000000000000006661          0.2000000000000000111          0.004273112443375248759       
0.70000000000000006661          0.25                           0.0048052725130485196559      
0.70000000000000006661          0.30000000000000004441         0.0052979745121957133591      
0.70000000000000006661          0.35000000000000003331         0.0058076191087630402166      
0.70000000000000006661          0.4000000000000000222          0.0063432357898831615017      
0.70000000000000006661          0.4500000000000000111          0.0068777963206889669578      
0.70000000000000006661          0.5                            0.0073668365960821713401      
0.70000000000000006661          0.55000000000000004441         0.0077634486280222514409      
0.70000000000000006661          0.60000000000000008882         0.0080289969224782709034      
0.70000000000000006661          0.6500000000000000222          0.0081437338335437203796      
0.70000000000000006661          0.70000000000000006661         0.0081187020423163502869      
0.70000000000000006661          0.75                           0.0080017655440278723233      
0.70000000000000006661          0.80000000000000004441         0.0078623728600004660905      
0.70000000000000006661          0.85000000000000008882         0.0077434761290744447138      
0.70000000000000006661          0.9000000000000000222          0.0075892781186450708475      
0.70000000000000006661          0.95000000000000006661         0.0071761950805149243848      
0.75                            0                              0                             
0.75                            0.050000000000000002776        0.0015437100716300111714      
0.75                            0.10000000000000000555         0.0027712793987453299138      
0.75                            0.1500000000000000222          0.0037262124582855271626      
0.75                            0.2000000000000000111          0.0044633180050586140908      
0.75                            0.25                           0.0050635586447049796277      
0.75                            0.30000000000000004441         0.0056118378155367576454      
0.75                            0.35000000000000003331         0.0061649523686726492855      
0.75                            0.4000000000000000222          0.0067363236310571394938      
0.75                            0.4500000000000000111          0.007302578149915417427       
0.75                            0.5                            0.0078204332533464704369      
0.75                            0.55000000000000004441         0.008242789280411333408       
0.75                            0.60000000000000008882         0.0085315160281971280654      