TITLE = 'DEM DATA | DEM DATA | DEM DATA | DEM DATA'
VARIABLES = 'X' 'Y' 'E' 
ZONE T='SubZone'
I=20 J=20 K=1 ZONETYPE=Ordered
DATAPACKING=POINT
DT=(SINGLE SINGLE SINGLE )
0                               0                              0                             
0                               0.050000000000000003           0                             
0                               0.10000000000000001            0                             
0                               0.15000000000000002            0                             
0                               0.20000000000000001            0                             
0                               0.25                           0                             
0                               0.30000000000000004            0                             
0                               0.35000000000000003            0                             
0                               0.40000000000000002            0                             
0                               0.45000000000000001            0                             
0                               0.5                            0                             
0                               0.55000000000000004            0                             
0                               0.60000000000000009            0                             
0                               0.65000000000000002            0                             
0                               0.70000000000000007            0                             
0                               0.75                           0                             
0                               0.80000000000000004            0                             
0                               0.85000000000000009            0                             
0                               0.90000000000000002            0                             
0                               0.95000000000000007            0                             
0.050000000000000003            0                              0                             
0.050000000000000003            0.050000000000000003           0.00036777344352145747        
0.050000000000000003            0.10000000000000001            0.0003843158159579918         
0.050000000000000003            0.15000000000000002            0.00034190619143426026        
0.050000000000000003            0.20000000000000001            0.00032682235692882422        
0.050000000000000003            0.25                           0.00034036059574771294        
0.050000000000000003            0.30000000000000004            0.0003714426540417648         
0.050000000000000003            0.35000000000000003            0.00041137156110182538        
0.050000000000000003            0.40000000000000002            0.00045418602066371605        
0.050000000000000003            0.45000000000000001            0.00049513112235577417        
0.050000000000000003            0.5                            0.00053004391567412767        
0.050000000000000003            0.55000000000000004            0.00055522362565763039        
0.050000000000000003            0.60000000000000009            0.00056745199769769883        
0.050000000000000003            0.65000000000000002            0.00056400377329768325        
0.050000000000000003            0.70000000000000007            0.00054252788598807555        
0.050000000000000003            0.75                           0.00050065333207127694        
0.050000000000000003            0.80000000000000004            0.00043552267138013967        
0.050000000000000003            0.85000000000000009            0.00034759206836509904        
0.050000000000000003            0.90000000000000002            0.00026225367181109682        
0.050000000000000003            0.95000000000000007            0.00027030493601509775        
0.10000000000000001             0                              0                             
0.10000000000000001             0.050000000000000003           0.00060537616321232335        
0.10000000000000001             0.10000000000000001            0.00072796434822208766        
0.10000000000000001             0.15000000000000002            0.00068975224787304334        
0.10000000000000001             0.20000000000000001            0.00066572545291920804        
0.10000000000000001             0.25                           0.00068948585002814866        
0.10000000000000001             0.30000000000000004            0.00074778214051574032        
0.10000000000000001             0.35000000000000003            0.00082448689300673728        
0.10000000000000001             0.40000000000000002            0.00090773685028788798        
0.10000000000000001             0.45000000000000001            0.00098835579650202732        
0.10000000000000001             0.5                            0.0010584766130752321         
0.10000000000000001             0.55000000000000004            0.0011109805714233367         
0.10000000000000001             0.60000000000000009            0.0011393025324832884         
0.10000000000000001             0.65000000000000002            0.0011373349349790285         
0.10000000000000001             0.70000000000000007            0.0010992732901686786         
0.10000000000000001             0.75                           0.0010194991378487117         
0.10000000000000001             0.80000000000000004            0.0008947622404089639         
0.10000000000000001             0.85000000000000009            0.00073845922144766263        
0.10000000000000001             0.90000000000000002            0.00061844430403135142        
0.10000000000000001             0.95000000000000007            0.00067705043703414347        
0.15000000000000002             0                              0                             
0.15000000000000002             0.050000000000000003           0.00078089382177970457        
0.15000000000000002             0.10000000000000001            0.001028200205948071          
0.15000000000000002             0.15000000000000002            0.001031636486196863          
0.15000000000000002             0.20000000000000001            0.0010127387991674119         
0.15000000000000002             0.25                           0.0010473294901540697         
0.15000000000000002             0.30000000000000004            0.0011315795957322905         
0.15000000000000002             0.35000000000000003            0.0012447169468787767         
0.15000000000000002             0.40000000000000002            0.001368890273278689          
0.15000000000000002             0.45000000000000001            0.0014901097920974049         
0.15000000000000002             0.5                            0.0015965237283350753         
0.15000000000000002             0.55000000000000004            0.0016774264719205956         
0.15000000000000002             0.60000000000000009            0.0017228391102896978         
0.15000000000000002             0.65000000000000002            0.0017233003372392197         
0.15000000000000002             0.70000000000000007            0.0016697721262295406         
0.15000000000000002             0.75                           0.0015545969084231892         
0.15000000000000002             0.80000000000000004            0.0013787495804726824         
0.15000000000000002             0.85000000000000009            0.0011766445078618126         
0.15000000000000002             0.90000000000000002            0.0010528902794102457         
0.15000000000000002             0.95000000000000007            0.0011545494691285185         
0.20000000000000001             0                              0                             
0.20000000000000001             0.050000000000000003           0.0009208616464699837         
0.20000000000000001             0.10000000000000001            0.0012917078374654611         
0.20000000000000001             0.15000000000000002            0.0013603840854832239         
0.20000000000000001             0.20000000000000001            0.0013628959115943307         
0.20000000000000001             0.25                           0.0014120276231857076         
0.20000000000000001             0.30000000000000004            0.0015214947759121245         
0.20000000000000001             0.35000000000000003            0.0016702918122315502         
0.20000000000000001             0.40000000000000002            0.0018353041233774015         
0.20000000000000001             0.45000000000000001            0.0019975295788650094         
0.20000000000000001             0.5                            0.002140924857771731          
0.20000000000000001             0.55000000000000004            0.0022510671851889708         
0.20000000000000001             0.60000000000000009            0.0023144806161181641         
0.20000000000000001             0.65000000000000002            0.0023183533598756245         
0.20000000000000001             0.70000000000000007            0.0022508260728848484         
0.20000000000000001             0.75                           0.0021041309151585974         
0.20000000000000001             0.80000000000000004            0.0018880711598190381         
0.20000000000000001             0.85000000000000009            0.0016603466916966791         
0.20000000000000001             0.90000000000000002            0.0015473835335644281         
0.20000000000000001             0.95000000000000007            0.0016732627299953506         
0.25                            0                              0                             
0.25                            0.050000000000000003           0.0010370912043278224         
0.25                            0.10000000000000001            0.0015248658163333761         
0.25                            0.15000000000000002            0.0016723780179410674         
0.25                            0.20000000000000001            0.001711347581771383          
0.25                            0.25                           0.0017809957788661457         
0.25                            0.30000000000000004            0.0019159310612408831         
0.25                            0.35000000000000003            0.0020995174297164798         
0.25                            0.40000000000000002            0.002304927416543201          
0.25                            0.45000000000000001            0.0025082128463844722         
0.25                            0.5                            0.0026889567293302274         
0.25                            0.55000000000000004            0.0028288845670751961         
0.25                            0.60000000000000009            0.0029109641294489119         
0.25                            0.65000000000000002            0.0029191509240331648         
0.25                            0.70000000000000007            0.0028395237474618806         
0.25                            0.75                           0.0026665508359524637         
0.25                            0.80000000000000004            0.0024220871869793381         
0.25                            0.85000000000000009            0.0021845199791588055         
0.25                            0.90000000000000002            0.002086822539254074          
0.25                            0.95000000000000007            0.0022171940885351571         
0.30000000000000004             0                              0                             
0.30000000000000004             0.050000000000000003           0.0011355840270208528         
0.30000000000000004             0.10000000000000001            0.0017323291965845034         
0.30000000000000004             0.15000000000000002            0.0019659105011049505         
0.30000000000000004             0.20000000000000001            0.0020538786504871176         
0.30000000000000004             0.25                           0.0021512109559416182         
0.30000000000000004             0.30000000000000004            0.0023129722335646363         
0.30000000000000004             0.35000000000000003            0.0025306076769078256         
0.30000000000000004             0.40000000000000002            0.0027756848557463076         
0.30000000000000004             0.45000000000000001            0.0030197357001389147         
0.30000000000000004             0.5                            0.0032378734807576581         
0.30000000000000004             0.55000000000000004            0.0034078515592048664         
0.30000000000000004             0.60000000000000009            0.0035090621358604412         
0.30000000000000004             0.65000000000000002            0.0035224961533535382         
0.30000000000000004             0.70000000000000007            0.0034332423516543198         
0.30000000000000004             0.75                           0.0032403144706825149         
0.30000000000000004             0.80000000000000004            0.0029789372494817279         
0.30000000000000004             0.85000000000000009            0.0027428341197679451         
0.30000000000000004             0.90000000000000002            0.0026593023028076423         
0.30000000000000004             0.95000000000000007            0.0027761886337329678         
0.35000000000000003             0                              0                             
0.35000000000000003             0.050000000000000003           0.0012197722448226145         
0.35000000000000003             0.10000000000000001            0.0019173258679907601         
0.35000000000000003             0.15000000000000002            0.0022401887418179722         
0.35000000000000003             0.20000000000000001            0.0023869937267637642         
0.35000000000000003             0.25                           0.002519483669398026          
0.35000000000000003             0.30000000000000004            0.0027104221980751575         
0.35000000000000003             0.35000000000000003            0.002961683854235897          
0.35000000000000003             0.40000000000000002            0.0032455145955236908         
0.35000000000000003             0.45000000000000001            0.003529716995857024          
0.35000000000000003             0.5                            0.003784982308820517          
0.35000000000000003             0.55000000000000004            0.0039850126509377581         
0.35000000000000003             0.60000000000000009            0.0041056698031198824         
0.35000000000000003             0.65000000000000002            0.0041254188646526746         
0.35000000000000003             0.70000000000000007            0.0040296290882930741         
0.35000000000000003             0.75                           0.0038237273412704553         
0.35000000000000003             0.80000000000000004            0.0035558408835005828         
0.35000000000000003             0.85000000000000009            0.0033287253960878616         
0.35000000000000003             0.90000000000000002            0.0032553606909067057         
0.35000000000000003             0.95000000000000007            0.0033430200901261031         
0.40000000000000002             0                              0                             
0.40000000000000002             0.050000000000000003           0.0012918254230731563         
0.40000000000000002             0.10000000000000001            0.002082123079846232          
0.40000000000000002             0.15000000000000002            0.002494849092896656          
0.40000000000000002             0.20000000000000001            0.0027078430779938767         
0.40000000000000002             0.25                           0.0028826592309560972         
0.40000000000000002             0.30000000000000004            0.0031058822039646827         
0.40000000000000002             0.35000000000000003            0.003390778636892966          
0.40000000000000002             0.40000000000000002            0.00371238550296904           
0.40000000000000002             0.45000000000000001            0.00403585525693817           
0.40000000000000002             0.5                            0.0043276905770039953         
0.40000000000000002             0.55000000000000004            0.0045575407368627641         
0.40000000000000002             0.60000000000000009            0.0046978723051696036         
0.40000000000000002             0.65000000000000002            0.0047252242260999999         
0.40000000000000002             0.70000000000000007            0.0046265678598063076         
0.40000000000000002             0.75                           0.0044148767661291721         
0.40000000000000002             0.80000000000000004            0.0041494392879530828         
0.40000000000000002             0.85000000000000009            0.0039358939671092497         
0.40000000000000002             0.90000000000000002            0.0038673339245791638         
0.40000000000000002             0.95000000000000007            0.0039121551089371653         
0.45000000000000001             0                              0                             
0.45000000000000001             0.050000000000000003           0.001353232372553137          
0.45000000000000001             0.10000000000000001            0.0022283754837981729         
0.45000000000000001             0.15000000000000002            0.0027297430417019264         
0.45000000000000001             0.20000000000000001            0.00301411754676284           
0.45000000000000001             0.25                           0.003237748028042553          
0.45000000000000001             0.30000000000000004            0.0034968404868571668         
0.45000000000000001             0.35000000000000003            0.0038158506059571273         
0.45000000000000001             0.40000000000000002            0.004174306287225038          
0.45000000000000001             0.45000000000000001            0.0045359549928443155         
0.45000000000000001             0.5                            0.0048635449353475746         
0.45000000000000001             0.55000000000000004            0.0051227862676395119         
0.45000000000000001             0.60000000000000009            0.0052829969220540285         
0.45000000000000001             0.65000000000000002            0.0053195125102443175         
0.45000000000000001             0.70000000000000007            0.0052221162291850032         
0.45000000000000001             0.75                           0.005011660472970858          
0.45000000000000001             0.80000000000000004            0.0047560876073529101         
0.45000000000000001             0.85000000000000009            0.0045585254599573855         
0.45000000000000001             0.90000000000000002            0.0044889227766693462         
0.45000000000000001             0.95000000000000007            0.0044791685448839491         
0.5                             0                              0                             
0.5                             0.050000000000000003           0.0014050810591010876         
0.5                             0.10000000000000001            0.002357345239949904          
0.5                             0.15000000000000002            0.0029448457626395363         
0.5                             0.20000000000000001            0.0033039542288442192         
0.5                             0.25                           0.0035819998224921878         
0.5                             0.30000000000000004            0.0038807587359137585         
0.5                             0.35000000000000003            0.0042348089428032587         
0.5                             0.40000000000000002            0.0046293297495434427         
0.5                             0.45000000000000001            0.0050279422880759039         
0.5                             0.5                            0.0053902606974571832         
0.5                             0.55000000000000004            0.0056783158833850766         
0.5                             0.60000000000000009            0.0058586477960735905         
0.5                             0.65000000000000002            0.0059061857203561718         
0.5                             0.70000000000000007            0.0058144513616555926         
0.5                             0.75                           0.0056118458775091806         
0.5                             0.80000000000000004            0.0053720831164572047         
0.5                             0.85000000000000009            0.005191389229351584          
0.5                             0.90000000000000002            0.0051149190143080503         
0.5                             0.95000000000000007            0.005040440833148363          
0.55000000000000004             0                              0                             
0.55000000000000004             0.050000000000000003           0.0014482002585980425         
0.55000000000000004             0.10000000000000001            0.0024700301379334544         
0.55000000000000004             0.15000000000000002            0.0031402111932257171         
0.55000000000000004             0.20000000000000001            0.0035758578150280051         
0.55000000000000004             0.25                           0.0039129392245911276         
0.55000000000000004             0.30000000000000004            0.0042551460172290945         
0.55000000000000004             0.35000000000000003            0.0046455438252224202         
0.55000000000000004             0.40000000000000002            0.0050755553708208279         
0.55000000000000004             0.45000000000000001            0.0055098713758101603         
0.55000000000000004             0.5                            0.0059057411654548364         
0.55000000000000004             0.55000000000000004            0.0062219391949112079         
0.55000000000000004             0.60000000000000009            0.0064227244965984198         
0.55000000000000004             0.65000000000000002            0.00648343247702865           
0.55000000000000004             0.70000000000000007            0.00640184285510359           
0.55000000000000004             0.75                           0.0062131418149702355         
0.55000000000000004             0.80000000000000004            0.0059938394073015822         
0.55000000000000004             0.85000000000000009            0.0058298880296596689         
0.55000000000000004             0.90000000000000002            0.0057410381627824858         
0.55000000000000004             0.95000000000000007            0.00559299122924517           
0.60000000000000009             0                              0                             
0.60000000000000009             0.050000000000000003           0.0014832332776009149         
0.60000000000000009             0.10000000000000001            0.0025672327961063779         
0.60000000000000009             0.15000000000000002            0.0033159399359372621         
0.60000000000000009             0.20000000000000001            0.0038286318837279509         
0.60000000000000009             0.25                           0.0042283735970647385         
0.60000000000000009             0.30000000000000004            0.0046176158524551258         
0.60000000000000009             0.35000000000000003            0.0050459545802796768         
0.60000000000000009             0.40000000000000002            0.0055111358388120202         
0.60000000000000009             0.45000000000000001            0.0059799250364476197         
0.60000000000000009             0.5                            0.0064080875442549257         
0.60000000000000009             0.55000000000000004            0.0067517252731370547         
0.60000000000000009             0.60000000000000009            0.006973441615786502          
0.60000000000000009             0.65000000000000002            0.0070496626344631608         
0.60000000000000009             0.70000000000000007            0.0069826650810791424         
0.60000000000000009             0.75                           0.0068132838296339759         
0.60000000000000009             0.80000000000000004            0.0066180259162387234         
0.60000000000000009             0.85000000000000009            0.006470094345640609          
0.60000000000000009             0.90000000000000002            0.0063638208575553801         
0.60000000000000009             0.95000000000000007            0.0061343812766678774         
0.65000000000000002             0                              0                             
0.65000000000000002             0.050000000000000003           0.0015106731405529761         
0.65000000000000002             0.10000000000000001            0.0026495924176233032         
0.65000000000000002             0.15000000000000002            0.0034721475024239723         
0.65000000000000002             0.20000000000000001            0.0040613143220449288         
0.65000000000000002             0.25                           0.0045263795935155393         
0.65000000000000002             0.30000000000000004            0.0049659219280377975         
0.65000000000000002             0.35000000000000003            0.0054339791335746845         
0.65000000000000002             0.40000000000000002            0.0059342776472308678         
0.65000000000000002             0.45000000000000001            0.006436421605392928          
0.65000000000000002             0.5                            0.006895612012851382          
0.65000000000000002             0.55000000000000004            0.007266028754719267          
0.65000000000000002             0.60000000000000009            0.0075092926658266723         
0.65000000000000002             0.65000000000000002            0.0076034890802074706         
0.65000000000000002             0.70000000000000007            0.0075554062089155938         
0.65000000000000002             0.75                           0.0074101297944062505         
0.65000000000000002             0.80000000000000004            0.007241690521083699          
0.65000000000000002             0.85000000000000009            0.0071087870508990125         
0.65000000000000002             0.90000000000000002            0.0069805717934414702         
0.65000000000000002             0.95000000000000007            0.0066626474924893486         
0.70000000000000007             0                              0                             
0.70000000000000007             0.050000000000000003           0.0015308474342512479         
0.70000000000000007             0.10000000000000001            0.0027175727238437641         
0.70000000000000007             0.15000000000000002            0.0036089226637141536         
0.70000000000000007             0.20000000000000001            0.0042731124433581513         
0.70000000000000007             0.25                           0.0048052725130349749         
0.70000000000000007             0.30000000000000004            0.0052979745121859434         
0.70000000000000007             0.35000000000000003            0.0058076191087605977         
0.70000000000000007             0.40000000000000002            0.0063432357898893788         
0.70000000000000007             0.45000000000000001            0.0068777963206954063         
0.70000000000000007             0.5                            0.0073668365960792848         
0.70000000000000007             0.55000000000000004            0.0077634486280242498         
0.70000000000000007             0.60000000000000009            0.0080289969224875968         
0.70000000000000007             0.65000000000000002            0.0081437338335523801         
0.70000000000000007             0.70000000000000007            0.0081187020423287848         
0.70000000000000007             0.75                           0.0080017655440358659         
0.70000000000000007             0.80000000000000004            0.0078623728599833687         
0.70000000000000007             0.85000000000000009            0.0077434761290728904         
0.70000000000000007             0.90000000000000002            0.0075892781186521763         
0.70000000000000007             0.95000000000000007            0.0071761950805371288         
0.75                            0                              0                             
0.75                            0.050000000000000003           0.0015437100716253482         
0.75                            0.10000000000000001            0.0027712793987382245         
0.75                            0.15000000000000002            0.0037262124582730927         
0.75                            0.20000000000000001            0.0044633180050550614         
0.75                            0.25                           0.0050635586446987624         
0.75                            0.30000000000000004            0.0056118378155338711         
0.75                            0.35000000000000003            0.0061649523686804208         
0.75                            0.40000000000000002            0.006736323631054919          
0.75                            0.45000000000000001            0.0073025781499216347         
0.75                            0.5                            0.0078204332533504672         
0.75                            0.55000000000000004            0.0082427892804155523         
0.75                            0.60000000000000009            0.0085315160282162239         