TITLE = 'DEM DATA | DEM DATA | DEM DATA | DEM DATA'
VARIABLES = 'X' 'Y' 'E' 
ZONE T='SubZone'
I=20 J=20 K=1 ZONETYPE=Ordered
DATAPACKING=POINT
DT=(SINGLE SINGLE SINGLE )
0                               0                              0                             
0                               0.050000000000000002776        0                             
0                               0.10000000000000000555         0                             
0                               0.1500000000000000222          0                             
0                               0.2000000000000000111          0                             
0                               0.25                           0                             
0                               0.30000000000000004441         0                             
0                               0.35000000000000003331         0                             
0                               0.4000000000000000222          0                             
0                               0.4500000000000000111          0                             
0                               0.5                            0                             
0                               0.55000000000000004441         0                             
0                               0.60000000000000008882         0                             
0                               0.6500000000000000222          0                             
0                               0.70000000000000006661         0                             
0                               0.75                           0                             
0                               0.80000000000000004441         0                             
0                               0.85000000000000008882         0                             
0                               0.9000000000000000222          0                             
0                               0.95000000000000006661         0                             
0.050000000000000002776         0                              0                             
0.050000000000000002776         0.050000000000000002776        0.000305749575270741758       
0.050000000000000002776         0.10000000000000000555         0.00031281613349909420663     
0.050000000000000002776         0.1500000000000000222          0.00026277515393480221917     
0.050000000000000002776         0.2000000000000000111          0.00022913991687678603171     
0.050000000000000002776         0.25                           0.00021474565513490695423     
0.050000000000000002776         0.30000000000000004441         0.00021161074491393705443     
0.050000000000000002776         0.35000000000000003331         0.00021416737320789636101     
0.050000000000000002776         0.4000000000000000222          0.00021941370578071328623     
0.050000000000000002776         0.4500000000000000111          0.0002255239220068094852      
0.050000000000000002776         0.5                            0.00023122034119804624197     
0.050000000000000002776         0.55000000000000004441         0.00023554373329992550623     
0.050000000000000002776         0.60000000000000008882         0.00023777006552805346473     
0.050000000000000002776         0.6500000000000000222          0.00023738007644813485797     
0.050000000000000002776         0.70000000000000006661         0.00023405459350467339164     
0.050000000000000002776         0.75                           0.0002277777337731379248      
0.050000000000000002776         0.80000000000000004441         0.00021988752065094097077     
0.050000000000000002776         0.85000000000000008882         0.00021939865765263633079     
0.050000000000000002776         0.9000000000000000222          0.00025427053375315367134     
0.050000000000000002776         0.95000000000000006661         0.00036498033898890724913     
0.10000000000000000555          0                              0                             
0.10000000000000000555          0.050000000000000002776        0.00050033431519191928771     
0.10000000000000000555          0.10000000000000000555         0.00058854725016810327531     
0.10000000000000000555          0.1500000000000000222          0.0005281644497820980888      
0.10000000000000000555          0.2000000000000000111          0.00046626033523256005253     
0.10000000000000000555          0.25                           0.00043467367484462116067     
0.10000000000000000555          0.30000000000000004441         0.00042586697293334196956     
0.10000000000000000555          0.35000000000000003331         0.00042978657327030767021     
0.10000000000000000555          0.4000000000000000222          0.00044006421191333799925     
0.10000000000000000555          0.4500000000000000111          0.00045269878820586306745     
0.10000000000000000555          0.5                            0.00046485474781809976719     
0.10000000000000000555          0.55000000000000004441         0.00047434821921044090232     
0.10000000000000000555          0.60000000000000008882         0.00047947119393487724892     
0.10000000000000000555          0.6500000000000000222          0.00047898262895351706447     
0.10000000000000000555          0.70000000000000006661         0.00047229231302381435853     
0.10000000000000000555          0.75                           0.00046037408334043128377     
0.10000000000000000555          0.80000000000000004441         0.00044985906609684711555     
0.10000000000000000555          0.85000000000000008882         0.00046481758146188489889     
0.10000000000000000555          0.9000000000000000222          0.0005571819580407755268      
0.10000000000000000555          0.95000000000000006661         0.00076855553187593628195     
0.1500000000000000222           0                              0                             
0.1500000000000000222           0.050000000000000002776        0.00063940051406508047194     
0.1500000000000000222           0.10000000000000000555         0.00082342523646450338504     
0.1500000000000000222           0.1500000000000000222          0.00078500597729980192696     
0.1500000000000000222           0.2000000000000000111          0.0007074700756044549621      
0.1500000000000000222           0.25                           0.00065917578475094273927     
0.1500000000000000222           0.30000000000000004441         0.00064294655306795789329     
0.1500000000000000222           0.35000000000000003331         0.00064689549147778357963     
0.1500000000000000222           0.4000000000000000222          0.00066135939849520930522     
0.1500000000000000222           0.4500000000000000111          0.00067994894913225856214     
0.1500000000000000222           0.5                            0.00069816525644594840116     
0.1500000000000000222           0.55000000000000004441         0.00071257904756039103233     
0.1500000000000000222           0.60000000000000008882         0.00072053300839147738088     
0.1500000000000000222           0.6500000000000000222          0.00072017971100080124813     
0.1500000000000000222           0.70000000000000006661         0.00071105650183822532995     
0.1500000000000000222           0.75                           0.00069649752636857797938     
0.1500000000000000222           0.80000000000000004441         0.00069143428020512764931     
0.1500000000000000222           0.85000000000000008882         0.00073666396413840651292     
0.1500000000000000222           0.9000000000000000222          0.00089724621147424521439     
0.1500000000000000222           0.95000000000000006661         0.0011967748164909419728      
0.2000000000000000111           0                              0                             
0.2000000000000000111           0.050000000000000002776        0.00074343618788508258888     
0.2000000000000000111           0.10000000000000000555         0.0010205919079810943373      
0.2000000000000000111           0.1500000000000000222          0.0010252358160418584276      
0.2000000000000000111           0.2000000000000000111          0.00094745692310516105294     
0.2000000000000000111           0.25                           0.00088624448394214461189     
0.2000000000000000111           0.30000000000000004441         0.00086168243712370085063     
0.2000000000000000111           0.35000000000000003331         0.00086424309964416856644     
0.2000000000000000111           0.4000000000000000222          0.00088185326007073072674     
0.2000000000000000111           0.4500000000000000111          0.0009056819178019370753      
0.2000000000000000111           0.5                            0.00092945686447043485146     
0.2000000000000000111           0.55000000000000004441         0.0009484607868319727686      
0.2000000000000000111           0.60000000000000008882         0.00095912057190816746299     
0.2000000000000000111           0.6500000000000000222          0.00095917501811149108448     
0.2000000000000000111           0.70000000000000006661         0.0009489597185325937545      
0.2000000000000000111           0.75                           0.00093592483603432974348     
0.2000000000000000111           0.80000000000000004441         0.00094566814262675435998     
0.2000000000000000111           0.85000000000000008882         0.0010339256833693521997      
0.2000000000000000111           0.9000000000000000222          0.0012676209167135077394      
0.2000000000000000111           0.95000000000000006661         0.0016435765094746646042      
0.25                            0                              0                             
0.25                            0.050000000000000002776        0.00082068227236442581329     
0.25                            0.10000000000000000555         0.0011823618791768630842      
0.25                            0.1500000000000000222          0.0012427504431928859674      
0.25                            0.2000000000000000111          0.0011801431084708102759      
0.25                            0.25                           0.0011127947489317779883      
0.25                            0.30000000000000004441         0.0010804623081532849227      
0.25                            0.35000000000000003331         0.0010804362447487392274      
0.25                            0.4000000000000000222          0.0011000134590868348994      
0.25                            0.4500000000000000111          0.0011281922182937442756      
0.25                            0.5                            0.0011568745823062887013      
0.25                            0.55000000000000004441         0.0011800259161656168061      
0.25                            0.60000000000000008882         0.0011932303843664726628      
0.25                            0.6500000000000000222          0.0011941377994428847842      
0.25                            0.70000000000000006661         0.0011848515131565040548      
0.25                            0.75                           0.0011788827060796869262      
0.25                            0.80000000000000004441         0.0012138542873751934081      
0.25                            0.85000000000000008882         0.0013564543830071329467      
0.25                            0.9000000000000000222          0.0016654240715443524579      
0.25                            0.95000000000000006661         0.0021065461260216800099      
0.30000000000000004441          0                              0                             
0.30000000000000004441          0.050000000000000002776        0.0008752369762181633206      
0.30000000000000004441          0.10000000000000000555         0.0013099455112228763909      
0.30000000000000004441          0.1500000000000000222          0.0014324294543970328419      
0.30000000000000004441          0.2000000000000000111          0.0013989730210213213724      
0.30000000000000004441          0.25                           0.0013346253371648852948      
0.30000000000000004441          0.30000000000000004441         0.0012970269836700687449      
0.30000000000000004441          0.35000000000000003331         0.0012938357738381256468      
0.30000000000000004441          0.4000000000000000222          0.0013141979703306105876      
0.30000000000000004441          0.4500000000000000111          0.0013456925054453616752      
0.30000000000000004441          0.5                            0.0013784899146542795023      
0.30000000000000004441          0.55000000000000004441         0.0014052539084197235297      
0.30000000000000004441          0.60000000000000008882         0.001420875374955832271       
0.30000000000000004441          0.6500000000000000222          0.0014234474553509457451      
0.30000000000000004441          0.70000000000000006661         0.0014181691063603896197      
0.30000000000000004441          0.75                           0.0014266187126703577803      
0.30000000000000004441          0.80000000000000004441         0.0014986341956275683884      
0.30000000000000004441          0.85000000000000008882         0.0017061417197674622059      
0.30000000000000004441          0.9000000000000000222          0.0020905251063951801882      
0.30000000000000004441          0.95000000000000006661         0.002584839390343374177       
0.35000000000000003331          0                              0                             
0.35000000000000003331          0.050000000000000002776        0.00091028322620201329585     
0.35000000000000003331          0.10000000000000000555         0.0014048305748630696144      
0.35000000000000003331          0.1500000000000000222          0.0015903540330768350941      
0.35000000000000003331          0.2000000000000000111          0.0015973457002804725136      
0.35000000000000003331          0.25                           0.0015465172028401585891      
0.35000000000000003331          0.30000000000000004441         0.0015083050392932229045      
0.35000000000000003331          0.35000000000000003331         0.0015024434855541723977      
0.35000000000000003331          0.4000000000000000222          0.0015226376604569047402      
0.35000000000000003331          0.4500000000000000111          0.0015563413488033361887      
0.35000000000000003331          0.5                            0.0015923510577933175369      
0.35000000000000003331          0.55000000000000004441         0.0016221600229437971308      
0.35000000000000003331          0.60000000000000008882         0.0016402724508091104383      
0.35000000000000003331          0.6500000000000000222          0.0016460890508107617336      
0.35000000000000003331          0.70000000000000006661         0.0016496574139184261298      
0.35000000000000003331          0.75                           0.0016824586236463545674      
0.35000000000000003331          0.80000000000000004441         0.0018050552290418409029      
0.35000000000000003331          0.85000000000000008882         0.0020869346558685109017      
0.35000000000000003331          0.9000000000000000222          0.0025438858389172924745      
0.35000000000000003331          0.95000000000000006661         0.0030777023227219757473      
0.4000000000000000222           0                              0                             
0.4000000000000000222           0.050000000000000002776        0.00092926979498542117142     
0.4000000000000000222           0.10000000000000000555         0.0014699773738877652818      
0.4000000000000000222           0.1500000000000000222          0.001714785210279901051       
0.4000000000000000222           0.2000000000000000111          0.0017696042014636592654      
0.4000000000000000222           0.25                           0.0017427440419917061831      
0.4000000000000000222           0.30000000000000004441         0.0017104392879763175017      
0.4000000000000000222           0.35000000000000003331         0.0017038349569145072593      
0.4000000000000000222           0.4000000000000000222          0.0017234434854156432948      
0.4000000000000000222           0.4500000000000000111          0.0017583213781944273535      
0.4000000000000000222           0.5                            0.0017966254337773435168      
0.4000000000000000222           0.55000000000000004441         0.0018290533148963561416      
0.4000000000000000222           0.60000000000000008882         0.0018503396979372421782      
0.4000000000000000222           0.6500000000000000222          0.0018625494563011546489      
0.4000000000000000222           0.70000000000000006661         0.0018826793481190318147      
0.4000000000000000222           0.75                           0.0019530791569015715226      
0.4000000000000000222           0.80000000000000004441         0.0021408720837470252008      
0.4000000000000000222           0.85000000000000008882         0.0025035780888367220598      
0.4000000000000000222           0.9000000000000000222          0.0030256437400759672585      
0.4000000000000000222           0.95000000000000006661         0.0035834315291056739738      
0.4500000000000000111           0                              0                             
0.4500000000000000111           0.050000000000000002776        0.00093600285370021296671     
0.4500000000000000111           0.10000000000000000555         0.0015101285905467776161      
0.4500000000000000111           0.1500000000000000222          0.0018070417808868644016      
0.4500000000000000111           0.2000000000000000111          0.0019124605356972690373      
0.4500000000000000111           0.25                           0.0019182427104378341198      
0.4500000000000000111           0.30000000000000004441         0.0018993350025693356287      
0.4500000000000000111           0.35000000000000003331         0.0018953950582005774095      
0.4500000000000000111           0.4000000000000000222          0.0019148359835905459647      
0.4500000000000000111           0.4500000000000000111          0.0019501661892882271587      
0.4500000000000000111           0.5                            0.0019900807452051250124      
0.4500000000000000111           0.55000000000000004441         0.0020252907029267852579      
0.4500000000000000111           0.60000000000000008882         0.0020518960300450750367      
0.4500000000000000111           0.6500000000000000222          0.0020765105461229005357      
0.4500000000000000111           0.70000000000000006661         0.0021249549510486964721      
0.4500000000000000111           0.75                           0.0022491858405011555533      
0.4500000000000000111           0.80000000000000004441         0.0025153511059610167422      
0.4500000000000000111           0.85000000000000008882         0.002959340160158419053       
0.4500000000000000111           0.9000000000000000222          0.0035335189061742600103      
0.4500000000000000111           0.95000000000000006661         0.0040989696880771031573      
0.5                             0                              0                             
0.5                             0.050000000000000002776        0.00093422246281593679385     
0.5                             0.10000000000000000555         0.0015311965518971515365      
0.5                             0.1500000000000000222          0.0018715257866330770042      
0.5                             0.2000000000000000111          0.0020261841986242146163      
0.5                             0.25                           0.0020702758118535946608      
0.5                             0.30000000000000004441         0.0020719833400573151039      
0.5                             0.35000000000000003331         0.0020752506722689911811      
0.5                             0.4000000000000000222          0.0020960100372628964749      
0.5                             0.4500000000000000111          0.00213178239241207379        
0.5                             0.5                            0.0021734120901566456041      
0.5                             0.55000000000000004441         0.0022130561274811277883      
0.5                             0.60000000000000008882         0.0022499222139718000335      
0.5                             0.6500000000000000222          0.0022971523140600247359      
0.5                             0.70000000000000006661         0.0023897185525418862539      
0.5                             0.75                           0.0025843441421726787155      
0.5                             0.80000000000000004441         0.0029363353006734982387      
0.5                             0.85000000000000008882         0.0034535894917118170611      
0.5                             0.9000000000000000222          0.0040622042206122088714      
0.5                             0.95000000000000006661         0.0046202009733544713299      
0.55000000000000004441          0                              0                             
0.55000000000000004441          0.050000000000000002776        0.00092712540184858305281     
0.55000000000000004441          0.10000000000000000555         0.0015391726607179023745      
0.55000000000000004441          0.1500000000000000222          0.0019146850394391456973      
0.55000000000000004441          0.2000000000000000111          0.0021147205689040493581      
0.55000000000000004441          0.25                           0.0021997646035603057868      
0.55000000000000004441          0.30000000000000004441         0.0022282065460266231582      
0.55000000000000004441          0.35000000000000003331         0.0022439772639801791598      
0.55000000000000004441          0.4000000000000000222          0.0022689145671592747533      
0.55000000000000004441          0.4500000000000000111          0.0023065366354830807438      
0.55000000000000004441          0.5                            0.0023517610371326380658      
0.55000000000000004441          0.55000000000000004441         0.0024002434795151739166      
0.55000000000000004441          0.60000000000000008882         0.0024563009090829979186      
0.55000000000000004441          0.6500000000000000222          0.0025405574486681015145      
0.55000000000000004441          0.70000000000000006661         0.0026943747956791330722      
0.55000000000000004441          0.75                           0.0029711173477642294216      
0.55000000000000004441          0.80000000000000004441         0.003406449891347973491       
0.55000000000000004441          0.85000000000000008882         0.0039804654100008551865      
0.55000000000000004441          0.9000000000000000222          0.0046040251882424332308      
0.55000000000000004441          0.95000000000000006661         0.0051427203192460080317      
0.60000000000000008882          0                              0                             
0.60000000000000008882          0.050000000000000002776        0.00091711186777532205383     
0.60000000000000008882          0.10000000000000000555         0.0015391551742576226047      
0.60000000000000008882          0.1500000000000000222          0.0019433693153732001235      
0.60000000000000008882          0.2000000000000000111          0.0021844068993659426781      
0.60000000000000008882          0.25                           0.0023111996479234786506      
0.60000000000000008882          0.30000000000000004441         0.0023715743860521776298      
0.60000000000000008882          0.35000000000000003331         0.0024060599967743456773      
0.60000000000000008882          0.4000000000000000222          0.0024401124191566481159      
0.60000000000000008882          0.4500000000000000111          0.0024835493771842021005      
0.60000000000000008882          0.5                            0.0025372742816343052397      
0.60000000000000008882          0.55000000000000004441         0.0026026510087422405348      
0.60000000000000008882          0.60000000000000008882         0.0026904439824579906571      
0.60000000000000008882          0.6500000000000000222          0.0028273634438604755559      
0.60000000000000008882          0.70000000000000006661         0.003055202326069705876       
0.60000000000000008882          0.75                           0.0034154346241708211096      
0.60000000000000008882          0.80000000000000004441         0.0039204368971199610172      
0.60000000000000008882          0.85000000000000008882         0.0045295416749544514801      
0.60000000000000008882          0.9000000000000000222          0.0051505415532271392465      
0.60000000000000008882          0.95000000000000006661         0.0056626660531351458161      
0.6500000000000000222           0                              0                             
0.6500000000000000222           0.050000000000000002776        0.00090580468932666136084     
0.6500000000000000222           0.10000000000000000555         0.0015348850082022025276      
0.6500000000000000222           0.1500000000000000222          0.0019633833750292151166      
0.6500000000000000222           0.2000000000000000111          0.0022418768711713887853      
0.6500000000000000222           0.25                           0.0024107844348155715863      
0.6500000000000000222           0.30000000000000004441         0.0025081810363709600153      
0.6500000000000000222           0.35000000000000003331         0.0025691382473138624221      
0.6500000000000000222           0.4000000000000000222          0.002620320127179276426       
0.6500000000000000222           0.4500000000000000111          0.0026773116321043843868      
0.6500000000000000222           0.5                            0.0027482402415144324692      
0.6500000000000000222           0.55000000000000004441         0.0028415999229416399885      
0.6500000000000000222           0.60000000000000008882         0.0029742306196409717955      
0.6500000000000000222           0.6500000000000000222          0.0031750645965336055099      
0.6500000000000000222           0.70000000000000006661         0.003479537393276332935       
0.6500000000000000222           0.75                           0.0039123001845777771734      
0.6500000000000000222           0.80000000000000004441         0.0044655476094652701846      
0.6500000000000000222           0.85000000000000008882         0.0050883322658352714285      
0.6500000000000000222           0.9000000000000000222          0.0056943096362644940456      
0.6500000000000000222           0.95000000000000006661         0.00617725508043820426        
0.70000000000000006661          0                              0                             
0.70000000000000006661          0.050000000000000002776        0.00089422917119530431762     
0.70000000000000006661          0.10000000000000000555         0.001528809454102830756       
0.70000000000000006661          0.1500000000000000222          0.0019788254987032072307      
0.70000000000000006661          0.2000000000000000111          0.0022923242888424066876      
0.70000000000000006661          0.25                           0.0025038808011441648915      
0.70000000000000006661          0.30000000000000004441         0.002643565948345028005       
0.70000000000000006661          0.35000000000000003331         0.0027402991918228369883      
0.70000000000000006661          0.4000000000000000222          0.002819825154420696478       
0.70000000000000006661          0.4500000000000000111          0.0029019980741575857053      
0.70000000000000006661          0.5                            0.0030018850765249904811      
0.70000000000000006661          0.55000000000000004441         0.0031347687017719838565      
0.70000000000000006661          0.60000000000000008882         0.0033213601021304661742      
0.70000000000000006661          0.6500000000000000222          0.0035882955518351522528      
0.70000000000000006661          0.70000000000000006661         0.0039603818759661457705      
0.70000000000000006661          0.75                           0.0044461752074871352391      
0.70000000000000006661          0.80000000000000004441         0.005025200520970329876       
0.70000000000000006661          0.85000000000000008882         0.0056453975717731808004      
0.70000000000000006661          0.9000000000000000222          0.0062300376496242648727      
0.70000000000000006661          0.95000000000000006661         0.0066848826386438631175      
0.75                            0                              0                             
0.75                            0.050000000000000002776        0.00088298489085825160316     
0.75                            0.10000000000000000555         0.0015224086768081956933      
0.75                            0.1500000000000000222          0.0019922250215949066643      
0.75                            0.2000000000000000111          0.0023389458044924538171      
0.75                            0.25                           0.0025934794917090719935      
0.75                            0.30000000000000004441         0.0027800431641007428141      
0.75                            0.35000000000000003331         0.0029218510480304438204      
0.75                            0.4000000000000000222          0.0030421972033798372337      
0.75                            0.4500000000000000111          0.003162928747834081733       
0.75                            0.5                            0.0033039793039366660565      
0.75                            0.55000000000000004441         0.0034852137862251275635      
0.75                            0.60000000000000008882         0.0037282408447736337109      
0.75                            0.6500000000000000222          0.0040545042190531788151      
0.75                            0.70000000000000006661         0.0044781163524412193055      
0.75                            0.75                           0.0049964071015458078051      
0.75                            0.80000000000000004441         0.005583910231328648166       