TITLE = 'DEM DATA | DEM DATA | DEM DATA | DEM DATA'
VARIABLES = 'X' 'Y' 'E' 
ZONE T='SubZone'
I=80 J=80 K=1 ZONETYPE=Ordered
DATAPACKING=POINT
DT=(SINGLE SINGLE SINGLE )
0                               0                              0                             
0                               0.012500000000000000694        0                             
0                               0.025000000000000001388        0                             
0                               0.037500000000000005551        0                             
0                               0.050000000000000002776        0                             
0                               0.0625                         0                             
0                               0.075000000000000011102        0                             
0                               0.087500000000000008327        0                             
0                               0.10000000000000000555         0                             
0                               0.11250000000000000278         0                             
0                               0.125                          0                             
0                               0.1375000000000000111          0                             
0                               0.1500000000000000222          0                             
0                               0.16250000000000000555         0                             
0                               0.17500000000000001665         0                             
0                               0.1875                         0                             
0                               0.2000000000000000111          0                             
0                               0.2125000000000000222          0                             
0                               0.22500000000000000555         0                             
0                               0.23750000000000001665         0                             
0                               0.25                           0                             
0                               0.2625000000000000111          0                             
0                               0.2750000000000000222          0                             
0                               0.28750000000000003331         0                             
0                               0.30000000000000004441         0                             
0                               0.3125                         0                             
0                               0.3250000000000000111          0                             
0                               0.3375000000000000222          0                             
0                               0.35000000000000003331         0                             
0                               0.36250000000000004441         0                             
0                               0.375                          0                             
0                               0.3875000000000000111          0                             
0                               0.4000000000000000222          0                             
0                               0.41250000000000003331         0                             
0                               0.42500000000000004441         0                             
0                               0.4375                         0                             
0                               0.4500000000000000111          0                             
0                               0.4625000000000000222          0                             
0                               0.47500000000000003331         0                             
0                               0.48750000000000004441         0                             
0                               0.5                            0                             
0                               0.51250000000000006661         0                             
0                               0.5250000000000000222          0                             
0                               0.5374999999999999778          0                             
0                               0.55000000000000004441         0                             
0                               0.5625                         0                             
0                               0.57500000000000006661         0                             
0                               0.5875000000000000222          0                             
0                               0.60000000000000008882         0                             
0                               0.61250000000000004441         0                             
0                               0.625                          0                             
0                               0.63750000000000006661         0                             
0                               0.6500000000000000222          0                             
0                               0.66250000000000008882         0                             
0                               0.67500000000000004441         0                             
0                               0.6875                         0                             
0                               0.70000000000000006661         0                             
0                               0.7125000000000000222          0                             
0                               0.72500000000000008882         0                             
0                               0.73750000000000004441         0                             
0                               0.75                           0                             
0                               0.76250000000000006661         0                             
0                               0.7750000000000000222          0                             
0                               0.78750000000000008882         0                             
0                               0.80000000000000004441         0                             
0                               0.8125                         0                             
0                               0.82500000000000006661         0                             
0                               0.8375000000000000222          0                             
0                               0.85000000000000008882         0                             
0                               0.86250000000000004441         0                             
0                               0.875                          0                             
0                               0.88750000000000006661         0                             
0                               0.9000000000000000222          0                             
0                               0.91250000000000008882         0                             
0                               0.92500000000000004441         0                             
0                               0.9375                         0                             
0                               0.95000000000000006661         0                             
0                               0.9625000000000000222          0                             
0                               0.97500000000000008882         0                             
0                               0.98750000000000004441         0                             
0.012500000000000000694         0                              0                             
0.012500000000000000694         0.012500000000000000694        1.0904799185640356995e-005    
0.012500000000000000694         0.025000000000000001388        1.4882431012885888322e-005    
0.012500000000000000694         0.037500000000000005551        1.5393325020429671213e-005    
0.012500000000000000694         0.050000000000000002776        1.454329409744659074e-005     
0.012500000000000000694         0.0625                         1.3432807530966428544e-005    
0.012500000000000000694         0.075000000000000011102        1.2505813957952582882e-005    
0.012500000000000000694         0.087500000000000008327        1.1867166942014506503e-005    
0.012500000000000000694         0.10000000000000000555         1.1491275315300697457e-005    
0.012500000000000000694         0.11250000000000000278         1.1323860317657974406e-005    
0.012500000000000000694         0.125                          1.1317424652990126788e-005    
0.012500000000000000694         0.1375000000000000111          1.1437461858943009929e-005    
0.012500000000000000694         0.1500000000000000222          1.1659882111825226048e-005    
0.012500000000000000694         0.16250000000000000555         1.1967515797239869357e-005    
0.012500000000000000694         0.17500000000000001665         1.2347593500772191533e-005    
0.012500000000000000694         0.1875                         1.2790215836222529333e-005    
0.012500000000000000694         0.2000000000000000111          1.3287763355407378185e-005    
0.012500000000000000694         0.2125000000000000222          1.3836541091771792367e-005    
0.012500000000000000694         0.22500000000000000555         1.443309016835314651e-005     
0.012500000000000000694         0.23750000000000001665         1.5071813893818841734e-005    
0.012500000000000000694         0.25                           1.5747436369117906452e-005    
0.012500000000000000694         0.2625000000000000111          1.6455174371321490412e-005    
0.012500000000000000694         0.2750000000000000222          1.7190609314710059152e-005    
0.012500000000000000694         0.28750000000000003331         1.7949573412501251823e-005    
0.012500000000000000694         0.30000000000000004441         1.8728067972428874555e-005    
0.012500000000000000694         0.3125                         1.9522205907174239314e-005    
0.012500000000000000694         0.3250000000000000111          2.0328171786987425662e-005    
0.012500000000000000694         0.3375000000000000222          2.1142194608136932743e-005    
0.012500000000000000694         0.35000000000000003331         2.1960529932751882143e-005    
0.012500000000000000694         0.36250000000000004441         2.2779449408094620821e-005    
0.012500000000000000694         0.375                          2.359523538419949773e-005     
0.012500000000000000694         0.3875000000000000111          2.4404180184678381238e-005    
0.012500000000000000694         0.4000000000000000222          2.5202588492589939051e-005    
0.012500000000000000694         0.41250000000000003331         2.5986782101528049793e-005    
0.012500000000000000694         0.42500000000000004441         2.675310726507618142e-005     
0.012500000000000000694         0.4375                         2.7497942834298072512e-005    
0.012500000000000000694         0.4500000000000000111          2.8217709979072580495e-005    
0.012500000000000000694         0.4625000000000000222          2.8908882701017546424e-005    
0.012500000000000000694         0.47500000000000003331         2.956799830267087259e-005     
0.012500000000000000694         0.48750000000000004441         3.0191668340950883476e-005    
0.012500000000000000694         0.5                            3.0776589562631073704e-005    
0.012500000000000000694         0.51250000000000006661         3.1319553947417588802e-005    
0.012500000000000000694         0.5250000000000000222          3.1817458454375113774e-005    
0.012500000000000000694         0.5374999999999999778          3.2267313881284565014e-005    
0.012500000000000000694         0.55000000000000004441         3.2666252451463151374e-005    
0.012500000000000000694         0.5625                         3.301153392309963408e-005     
0.012500000000000000694         0.57500000000000006661         3.3300550484227642301e-005    
0.012500000000000000694         0.5875000000000000222          3.3530829251837701577e-005    
0.012500000000000000694         0.60000000000000008882         3.3700033117645133984e-005    
0.012500000000000000694         0.61250000000000004441         3.3805958832955340654e-005    
0.012500000000000000694         0.625                          3.3846532284442787386e-005    
0.012500000000000000694         0.63750000000000006661         3.3819800721701653856e-005    
0.012500000000000000694         0.6500000000000000222          3.3723920777051219488e-005    
0.012500000000000000694         0.66250000000000008882         3.3557142311568810555e-005    
0.012500000000000000694         0.67500000000000004441         3.3317786604314392207e-005    
0.012500000000000000694         0.6875                         3.3004217513399325412e-005    
0.012500000000000000694         0.70000000000000006661         3.2614804551300835556e-005    
0.012500000000000000694         0.7125000000000000222          3.2147874327481673618e-005    
0.012500000000000000694         0.72500000000000008882         3.1601647779710972941e-005    
0.012500000000000000694         0.73750000000000004441         3.0974157692709169964e-005    
0.012500000000000000694         0.75                           3.0263138587782734135e-005    
0.012500000000000000694         0.76250000000000006661         2.9465878952139590297e-005    
0.012500000000000000694         0.7750000000000000222          2.8579018380492371421e-005    
0.012500000000000000694         0.78750000000000008882         2.7598274956242008216e-005    
0.012500000000000000694         0.80000000000000004441         2.6518165834543694359e-005    
0.012500000000000000694         0.8125                         2.5332425096058486247e-005    
0.012500000000000000694         0.82500000000000006661         2.4036091367696243992e-005    
0.012500000000000000694         0.8375000000000000222          2.2625150734478793879e-005    
0.012500000000000000694         0.85000000000000008882         2.1095445551511105009e-005    
0.012500000000000000694         0.86250000000000004441         1.9442486449472440313e-005    
0.012500000000000000694         0.875                          1.7661549774672380408e-005    
0.012500000000000000694         0.88750000000000006661         1.5748630143752606614e-005    
0.012500000000000000694         0.9000000000000000222          1.3704562763283689719e-005    
0.012500000000000000694         0.91250000000000008882         1.1548832481222959245e-005    
0.012500000000000000694         0.92500000000000004441         9.3574619761671584683e-006    
0.012500000000000000694         0.9375                         7.3476355095802858841e-006    
0.012500000000000000694         0.95000000000000006661         6.0248179114541500212e-006    
0.012500000000000000694         0.9625000000000000222          6.3553062419341443956e-006    
0.012500000000000000694         0.97500000000000008882         9.8052753401134395972e-006    
0.012500000000000000694         0.98750000000000004441         1.7939095946939431769e-005    
0.025000000000000001388         0                              0                             
0.025000000000000001388         0.012500000000000000694        1.7893499127508150082e-005    
0.025000000000000001388         0.025000000000000001388        2.6452958665545978079e-005    
0.025000000000000001388         0.037500000000000005551        2.894489212268425149e-005     
0.025000000000000001388         0.050000000000000002776        2.8350485450134854659e-005    
0.025000000000000001388         0.0625                         2.6696965953698637009e-005    
0.025000000000000001388         0.075000000000000011102        2.5049848175084932222e-005    
0.025000000000000001388         0.087500000000000008327        2.3811724214173324299e-005    
0.025000000000000001388         0.10000000000000000555         2.3044969084784483471e-005    
0.025000000000000001388         0.11250000000000000278         2.2687814527300176337e-005    
0.025000000000000001388         0.125                          2.2658134195108203812e-005    
0.025000000000000001388         0.1375000000000000111          2.2887760025902537109e-005    
0.025000000000000001388         0.1500000000000000222          2.33267642020251742e-005      
0.025000000000000001388         0.16250000000000000555         2.3939238889214564665e-005    
0.025000000000000001388         0.17500000000000001665         2.4698654234489580972e-005    
0.025000000000000001388         0.1875                         2.5584678747803124566e-005    
0.025000000000000001388         0.2000000000000000111          2.6581638653100370107e-005    
0.025000000000000001388         0.2125000000000000222          2.7678145877008120124e-005    
0.025000000000000001388         0.22500000000000000555         2.8864309533194187907e-005    
0.025000000000000001388         0.23750000000000001665         3.012971440252698585e-005     
0.025000000000000001388         0.25                           3.1464374684597729015e-005    
0.025000000000000001388         0.2625000000000000111          3.2859082998326627489e-005    
0.025000000000000001388         0.2750000000000000222          3.4305291394032266794e-005    
0.025000000000000001388         0.28750000000000003331         3.5794945980827108656e-005    
0.025000000000000001388         0.30000000000000004441         3.7320357741510434835e-005    
0.025000000000000001388         0.3125                         3.8874108028164044981e-005    
0.025000000000000001388         0.3250000000000000111          4.0448980752616492396e-005    
0.025000000000000001388         0.3375000000000000222          4.2037913424941564244e-005    
0.025000000000000001388         0.35000000000000003331         4.3633962151901073412e-005    
0.025000000000000001388         0.36250000000000004441         4.5230277103902594149e-005    
0.025000000000000001388         0.375                          4.6820085441767744783e-005    
0.025000000000000001388         0.3875000000000000111          4.8396680291107330163e-005    
0.025000000000000001388         0.4000000000000000222          4.9953413975067917363e-005    
0.025000000000000001388         0.41250000000000003331         5.1483694613274622043e-005    
0.025000000000000001388         0.42500000000000004441         5.2980985398853874813e-005    
0.025000000000000001388         0.4375                         5.4438805710654847303e-005    
0.025000000000000001388         0.4500000000000000111          5.5850733833073817891e-005    
0.025000000000000001388         0.4625000000000000222          5.7210410805197398076e-005    
0.025000000000000001388         0.47500000000000003331         5.851154505864819555e-005     
0.025000000000000001388         0.48750000000000004441         5.9747918042862835364e-005    
0.025000000000000001388         0.5                            6.091338961078385239e-005     
0.025000000000000001388         0.51250000000000006661         6.2001905005937274495e-005    
0.025000000000000001388         0.5250000000000000222          6.3007499677913969549e-005    
0.025000000000000001388         0.5374999999999999778          6.3924307063700780418e-005    
0.025000000000000001388         0.55000000000000004441         6.4746563522843914029e-005    
0.025000000000000001388         0.5625                         6.5468614119712498223e-005    
0.025000000000000001388         0.57500000000000006661         6.6084917721864755435e-005    
0.025000000000000001388         0.5875000000000000222          6.6590050401327260943e-005    
0.025000000000000001388         0.60000000000000008882         6.6978708462173131011e-005    
0.025000000000000001388         0.61250000000000004441         6.7245709020724575566e-005    
0.025000000000000001388         0.625                          6.7385988466339696856e-005    
0.025000000000000001388         0.63750000000000006661         6.7394598381120829345e-005    
0.025000000000000001388         0.6500000000000000222          6.7266696841317141775e-005    
0.025000000000000001388         0.66250000000000008882         6.699753581873579833e-005     
0.025000000000000001388         0.67500000000000004441         6.6582441796469993278e-005    
0.025000000000000001388         0.6875                         6.6016788289768868481e-005    
0.025000000000000001388         0.70000000000000006661         6.5295958593170055906e-005    
0.025000000000000001388         0.7125000000000000222          6.4415293989927846496e-005    
0.025000000000000001388         0.72500000000000008882         6.3370024689257675732e-005    
0.025000000000000001388         0.73750000000000004441         6.2155176133948941697e-005    
0.025000000000000001388         0.75                           6.076544173505560309e-005     
0.025000000000000001388         0.76250000000000006661         5.9195011067769698343e-005    
0.025000000000000001388         0.7750000000000000222          5.7437339682886445758e-005    
0.025000000000000001388         0.78750000000000008882         5.548488371664994645e-005     
0.025000000000000001388         0.80000000000000004441         5.3329054374939843797e-005    
0.025000000000000001388         0.8125                         5.0960973767111283905e-005    
0.025000000000000001388         0.82500000000000006661         4.8372386806994072117e-005    
0.025000000000000001388         0.8375000000000000222          4.5555645298289704215e-005    
0.025000000000000001388         0.85000000000000008882         4.250302880870471256e-005     
0.025000000000000001388         0.86250000000000004441         3.9206674240066519133e-005    
0.025000000000000001388         0.875                          3.565967330509955957e-005     
0.025000000000000001388         0.88750000000000006661         3.1860785936865809731e-005    
0.025000000000000001388         0.9000000000000000222          2.7830048615173907933e-005    
0.025000000000000001388         0.91250000000000008882         2.3651689237125239629e-005    
0.025000000000000001388         0.92500000000000004441         1.9571429799247752612e-005    
0.025000000000000001388         0.9375                         1.6171794496644409378e-005    
0.025000000000000001388         0.95000000000000006661         1.4598700471601944173e-005    
0.025000000000000001388         0.9625000000000000222          1.6688446194512707166e-005    
0.025000000000000001388         0.97500000000000008882         2.4687811595480724236e-005    
0.025000000000000001388         0.98750000000000004441         4.0228887964843806913e-005    
0.037500000000000005551         0                              0                             
0.037500000000000005551         0.012500000000000000694        2.3066488059164669266e-005    
0.037500000000000005551         0.025000000000000001388        3.5799390300406130905e-005    
0.037500000000000005551         0.037500000000000005551        4.0832696704073967453e-005    
0.037500000000000005551         0.050000000000000002776        4.1251509282469456252e-005    
0.037500000000000005551         0.0625                         3.9608209864150367707e-005    
0.037500000000000005551         0.075000000000000011102        3.7526463662285181044e-005    
0.037500000000000005551         0.087500000000000008327        3.579150897103922091e-005     
0.037500000000000005551         0.10000000000000000555         3.4649689784282955429e-005    
0.037500000000000005551         0.11250000000000000278         3.4090657259344681052e-005    
0.037500000000000005551         0.125                          3.4022677517953070492e-005    
0.037500000000000005551         0.1375000000000000111          3.4350874026367606007e-005    
0.037500000000000005551         0.1500000000000000222          3.4999805255120364222e-005    
0.037500000000000005551         0.16250000000000000555         3.5913693942291047279e-005    
0.037500000000000005551         0.17500000000000001665         3.7051249370589900423e-005    
0.037500000000000005551         0.1875                         3.8381049939806288762e-005    
0.037500000000000005551         0.2000000000000000111          3.9878720148545099278e-005    
0.037500000000000005551         0.2125000000000000222          4.1525191119662352435e-005    
0.037500000000000005551         0.22500000000000000555         4.3304110504571724505e-005    
0.037500000000000005551         0.23750000000000001665         4.5199924405547875494e-005    
0.037500000000000005551         0.25                           4.7197946718702254998e-005    
0.037500000000000005551         0.2625000000000000111          4.9284560014184464194e-005    
0.037500000000000005551         0.2750000000000000222          5.1447092339618194501e-005    
0.037500000000000005551         0.28750000000000003331         5.3673608067184019887e-005    
0.037500000000000005551         0.30000000000000004441         5.5952729017150204527e-005    
0.037500000000000005551         0.3125                         5.8273499628391789429e-005    
0.037500000000000005551         0.3250000000000000111          6.0625287829685348129e-005    
0.037500000000000005551         0.3375000000000000222          6.2997712205525857598e-005    
0.037500000000000005551         0.35000000000000003331         6.5380588037733389228e-005    
0.037500000000000005551         0.36250000000000004441         6.7763888144112272016e-005    
0.037500000000000005551         0.375                          7.0137713982010296832e-005    
0.037500000000000005551         0.3875000000000000111          7.2492275342561640628e-005    
0.037500000000000005551         0.4000000000000000222          7.4817876070110145292e-005    
0.037500000000000005551         0.41250000000000003331         7.7104904602887103238e-005    
0.037500000000000005551         0.42500000000000004441         7.9343828542910443957e-005    
0.037500000000000005551         0.4375                         8.1525191747200409509e-005    
0.037500000000000005551         0.4500000000000000111          8.363961398538677372e-005     
0.037500000000000005551         0.4625000000000000222          8.5677792447169665024e-005    
0.037500000000000005551         0.47500000000000003331         8.7630504077562676457e-005    
0.037500000000000005551         0.48750000000000004441         8.9488609672727648103e-005    
0.037500000000000005551         0.5                            9.1243057751766443175e-005    
0.037500000000000005551         0.51250000000000006661         9.2884889778099832824e-005    
0.037500000000000005551         0.5250000000000000222          9.4405244909223640093e-005    
0.037500000000000005551         0.5374999999999999778          9.5795364958739526173e-005    
0.037500000000000005551         0.55000000000000004441         9.7046599174310799185e-005    
0.037500000000000005551         0.5625                         9.8150408404995559408e-005    
0.037500000000000005551         0.57500000000000006661         9.9098368297578787178e-005    
0.037500000000000005551         0.5875000000000000222          9.988217183365399876e-005     
0.037500000000000005551         0.60000000000000008882         0.00010049363033437508363     
0.037500000000000005551         0.61250000000000004441         0.00010092467263178583892     
0.037500000000000005551         0.625                          0.00010116734151766060279     
0.037500000000000005551         0.63750000000000006661         0.00010121378807892433827     
0.037500000000000005551         0.6500000000000000222          0.00010105626130929579176     
0.037500000000000005551         0.66250000000000008882         0.00010068709324473346101     
0.037500000000000005551         0.67500000000000004441         0.00010009867798332905409     
0.037500000000000005551         0.6875                         9.9283441709951958387e-005    
0.037500000000000005551         0.70000000000000006661         9.823380278262128229e-005     
0.037500000000000005551         0.7125000000000000222          9.6942116820430968005e-005    
0.037500000000000005551         0.72500000000000008882         9.5400603039585973875e-005    
0.037500000000000005551         0.73750000000000004441         9.3601244613994438737e-005    
0.037500000000000005551         0.75                           9.1535653057306376468e-005    
0.037500000000000005551         0.76250000000000006661         8.9194887256560662081e-005    
0.037500000000000005551         0.7750000000000000222          8.6569225373533953416e-005    
0.037500000000000005551         0.78750000000000008882         8.3647972659806058005e-005    
0.037500000000000005551         0.80000000000000004441         8.0419682501053912915e-005    
0.037500000000000005551         0.8125                         7.6872844455344591097e-005    
0.037500000000000005551         0.82500000000000006661         7.2996197177266353151e-005    
0.037500000000000005551         0.8375000000000000222          6.8778992816209694183e-005    
0.037500000000000005551         0.85000000000000008882         6.4210727946711898539e-005    
0.037500000000000005551         0.86250000000000004441         5.9281858237447693227e-005    
0.037500000000000005551         0.875                          5.3987584503367713751e-005    
0.037500000000000005551         0.88750000000000006661         4.834060678016172119e-005     
0.037500000000000005551         0.9000000000000000222          4.2406844746212257746e-005    