TITLE = 'DEM DATA | DEM DATA | DEM DATA | DEM DATA'
VARIABLES = 'X' 'Y' 'E' 
ZONE T='SubZone'
I=20 J=20 K=1 ZONETYPE=Ordered
DATAPACKING=POINT
DT=(SINGLE SINGLE SINGLE )
0                               0                              0                             
0                               0.050000000000000002776        0                             
0                               0.10000000000000000555         0                             
0                               0.1500000000000000222          0                             
0                               0.2000000000000000111          0                             
0                               0.25                           0                             
0                               0.30000000000000004441         0                             
0                               0.35000000000000003331         0                             
0                               0.4000000000000000222          0                             
0                               0.4500000000000000111          0                             
0                               0.5                            0                             
0                               0.55000000000000004441         0                             
0                               0.60000000000000008882         0                             
0                               0.6500000000000000222          0                             
0                               0.70000000000000006661         0                             
0                               0.75                           0                             
0                               0.80000000000000004441         0                             
0                               0.85000000000000008882         0                             
0                               0.9000000000000000222          0                             
0                               0.95000000000000006661         0                             
0.050000000000000002776         0                              0                             
0.050000000000000002776         0.050000000000000002776        0.00033708476213822891054     
0.050000000000000002776         0.10000000000000000555         0.0003487699446724779051      
0.050000000000000002776         0.1500000000000000222          0.00030240271449311073582     
0.050000000000000002776         0.2000000000000000111          0.00027798647339394300104     
0.050000000000000002776         0.25                           0.00027752681762582831482     
0.050000000000000002776         0.30000000000000004441         0.00029145935987906490539     
0.050000000000000002776         0.35000000000000003331         0.00031264132316599635431     
0.050000000000000002776         0.4000000000000000222          0.00033658681185877448172     
0.050000000000000002776         0.4500000000000000111          0.00036000263337476745562     
0.050000000000000002776         0.5                            0.00038016656413319971364     
0.050000000000000002776         0.55000000000000004441         0.00039474756049462378371     
0.050000000000000002776         0.60000000000000008882         0.00040177412833153347549     
0.050000000000000002776         0.6500000000000000222          0.00039962385408442990808     
0.050000000000000002776         0.70000000000000006661         0.00038696037587815368397     
0.050000000000000002776         0.75                           0.00036258263893840236847     
0.050000000000000002776         0.80000000000000004441         0.00032568339880678642828     
0.050000000000000002776         0.85000000000000008882         0.0002807792015986354528      
0.050000000000000002776         0.9000000000000000222          0.00025427362892727067845     
0.050000000000000002776         0.95000000000000006661         0.00031285004439496333362     
0.10000000000000000555          0                              0                             
0.10000000000000000555          0.050000000000000002776        0.00055408425026159946469     
0.10000000000000000555          0.10000000000000000555         0.0006592076510751887497      
0.10000000000000000555          0.1500000000000000222          0.0006093172434438187679      
0.10000000000000000555          0.2000000000000000111          0.00056604039557917040781     
0.10000000000000000555          0.25                           0.00056197192574414245314     
0.10000000000000000555          0.30000000000000004441         0.0005865601750123516922      
0.10000000000000000555          0.35000000000000003331         0.00062665425888774883845     
0.10000000000000000555          0.4000000000000000222          0.00067311754050747296674     
0.10000000000000000555          0.4500000000000000111          0.00071935123989130822508     
0.10000000000000000555          0.5                            0.00075999847800156672406     
0.10000000000000000555          0.55000000000000004441         0.00079040601643365349105     
0.10000000000000000555          0.60000000000000008882         0.00080643791785073304368     
0.10000000000000000555          0.6500000000000000222          0.00080442027145855021786     
0.10000000000000000555          0.70000000000000006661         0.00078114763997416680752     
0.10000000000000000555          0.75                           0.00073425019701200966438     
0.10000000000000000555          0.80000000000000004441         0.00066521138541175695025     
0.10000000000000000555          0.85000000000000008882         0.00059223917737583064991     
0.10000000000000000555          0.9000000000000000222          0.000575195814457973853       
0.10000000000000000555          0.95000000000000006661         0.00070981729145969119088     
0.1500000000000000222           0                              0                             
0.1500000000000000222           0.050000000000000002776        0.00071344821947527670147     
0.1500000000000000222           0.10000000000000000555         0.0009287562098267976296      
0.1500000000000000222           0.1500000000000000222          0.0009096487379460782563      
0.1500000000000000222           0.2000000000000000111          0.00086039073500354668056     
0.1500000000000000222           0.25                           0.00085303872828990101596     
0.1500000000000000222           0.30000000000000004441         0.00088666882762700183207     
0.1500000000000000222           0.35000000000000003331         0.00094473885043133698503     
0.1500000000000000222           0.4000000000000000222          0.0010134187946815309544      
0.1500000000000000222           0.4500000000000000111          0.0010824916758127578476      
0.1500000000000000222           0.5                            0.0011437692918678799003      
0.1500000000000000222           0.55000000000000004441         0.0011901793193478393817      
0.1500000000000000222           0.60000000000000008882         0.0012154034296030236106      
0.1500000000000000222           0.6500000000000000222          0.0012137837717201005461      
0.1500000000000000222           0.70000000000000006661         0.0011805376809839174257      
0.1500000000000000222           0.75                           0.0011133541696122239983      
0.1500000000000000222           0.80000000000000004441         0.0010196860085724956946      
0.1500000000000000222           0.85000000000000008882         0.00093633500051426565847     
0.1500000000000000222           0.9000000000000000222          0.00094909286868838371731     
0.1500000000000000222           0.95000000000000006661         0.0011512232581754044958      
0.2000000000000000111           0                              0                             
0.2000000000000000111           0.050000000000000002776        0.00083942922549251619557     
0.2000000000000000111           0.10000000000000000555         0.0011634224745127319522      
0.2000000000000000111           0.1500000000000000222          0.001196630258772479749       
0.2000000000000000111           0.2000000000000000111          0.0011563016415252480584      
0.2000000000000000111           0.25                           0.0011489067640324535091      
0.2000000000000000111           0.30000000000000004441         0.0011905396960820713304      
0.2000000000000000111           0.35000000000000003331         0.0012653673272371435132      
0.2000000000000000111           0.4000000000000000222          0.0013555780587115595637      
0.2000000000000000111           0.4500000000000000111          0.0014471824630499785513      
0.2000000000000000111           0.5                            0.0015289946117587049912      
0.2000000000000000111           0.55000000000000004441         0.0015914329592860987361      
0.2000000000000000111           0.60000000000000008882         0.0016259674784784294843      
0.2000000000000000111           0.6500000000000000222          0.0016250422532284591881      
0.2000000000000000111           0.70000000000000006661         0.0015827971378683525217      
0.2000000000000000111           0.75                           0.0014987018743319868719      
0.2000000000000000111           0.80000000000000004441         0.0013894769749751567645      
0.2000000000000000111           0.85000000000000008882         0.0013108766291340945287      
0.2000000000000000111           0.9000000000000000222          0.0013625621194617298926      
0.2000000000000000111           0.95000000000000006661         0.0016187325035232902337      
0.25                            0                              0                             
0.25                            0.050000000000000002776        0.0009427137353850145729      
0.25                            0.10000000000000000555         0.0013688472638466731013      
0.25                            0.1500000000000000222          0.0014667105253294288048      
0.25                            0.2000000000000000111          0.0014491071291768964358      
0.25                            0.25                           0.0014470490616709241749      
0.25                            0.30000000000000004441         0.0014966318002764822381      
0.25                            0.35000000000000003331         0.0015869797818643949228      
0.25                            0.4000000000000000222          0.0016977700813225471421      
0.25                            0.4500000000000000111          0.0018113360381761811624      
0.25                            0.5                            0.0019133553522565627247      
0.25                            0.55000000000000004441         0.0019916471951977321453      
0.25                            0.60000000000000008882         0.0020354663647430548679      
0.25                            0.6500000000000000222          0.002035549261703462065       
0.25                            0.70000000000000006661         0.0019857248971872909493      
0.25                            0.75                           0.0018891548241206645997      
0.25                            0.80000000000000004441         0.0017738643286226984941      
0.25                            0.85000000000000008882         0.0017116122623463958519      
0.25                            0.9000000000000000222          0.0018049021399988429692      
0.25                            0.95000000000000006661         0.0021021955796742819444      
0.30000000000000004441          0                              0                             
0.30000000000000004441          0.050000000000000002776        0.0010285909337564014265      
0.30000000000000004441          0.10000000000000000555         0.0015489873240437379565      
0.30000000000000004441          0.1500000000000000222          0.00171800654894616045        
0.30000000000000004441          0.2000000000000000111          0.0017346636244508495395      
0.30000000000000004441          0.25                           0.0017444816194978063351      
0.30000000000000004441          0.30000000000000004441         0.0018030547303040656004      
0.30000000000000004441          0.35000000000000003331         0.0019078764475659593103      
0.30000000000000004441          0.4000000000000000222          0.0020380930427870147525      
0.30000000000000004441          0.4500000000000000111          0.0021727911829179102909      
0.30000000000000004441          0.5                            0.0022944564358666763582      
0.30000000000000004441          0.55000000000000004441         0.0023882350832353793635      
0.30000000000000004441          0.60000000000000008882         0.0024412041678971707626      
0.30000000000000004441          0.6500000000000000222          0.0024427123914736448285      
0.30000000000000004441          0.70000000000000006661         0.0023872597692049524198      
0.30000000000000004441          0.75                           0.002283450991647173467       
0.30000000000000004441          0.80000000000000004441         0.0021711668013173479608      
0.30000000000000004441          0.85000000000000008882         0.0021336020724249671332      
0.30000000000000004441          0.9000000000000000222          0.0022678329146466058575      
0.30000000000000004441          0.95000000000000006661         0.0025951541807165412479      
0.35000000000000003331          0                              0                             
0.35000000000000003331          0.050000000000000002776        0.0010999110008034218566      
0.35000000000000003331          0.10000000000000000555         0.0017063563600714370949      
0.35000000000000003331          0.1500000000000000222          0.0019493476633705153489      
0.35000000000000003331          0.2000000000000000111          0.0020093943781331891074      
0.35000000000000003331          0.25                           0.0020379953738038913968      
0.35000000000000003331          0.30000000000000004441         0.0021075950020117417694      
0.35000000000000003331          0.35000000000000003331         0.0022262074715433399774      
0.35000000000000003331          0.4000000000000000222          0.0023745906306709141376      
0.35000000000000003331          0.4500000000000000111          0.0025293554474710155944      
0.35000000000000003331          0.5                            0.0026698769867619098761      
0.35000000000000003331          0.55000000000000004441         0.0027785977657157623355      
0.35000000000000003331          0.60000000000000008882         0.0028405158872990554642      
0.35000000000000003331          0.6500000000000000222          0.0028440496401676007565      
0.35000000000000003331          0.70000000000000006661         0.0027854619966409810417      
0.35000000000000003331          0.75                           0.0026801259817139655439      
0.35000000000000003331          0.80000000000000004441         0.002579054340309694382       
0.35000000000000003331          0.85000000000000008882         0.0025719643042179107795      
0.35000000000000003331          0.9000000000000000222          0.0027449629652454010653      
0.35000000000000003331          0.95000000000000006661         0.0030931486344616399009      
0.4000000000000000222           0                              0                             
0.4000000000000000222           0.050000000000000002776        0.0011582788571620206142      
0.4000000000000000222           0.10000000000000000555         0.0018424248671795595556      
0.4000000000000000222           0.1500000000000000222          0.0021597792266201398803      
0.4000000000000000222           0.2000000000000000111          0.002270173050421098182       
0.4000000000000000222           0.25                           0.0023243113074828958275      
0.4000000000000000222           0.30000000000000004441         0.0024077704377067910002      
0.4000000000000000222           0.35000000000000003331         0.0025399665827230410997      
0.4000000000000000222           0.4000000000000000222          0.0027052596722152433273      
0.4000000000000000222           0.4500000000000000111          0.0028788314320649099898      
0.4000000000000000222           0.5                            0.0030372063677452931785      
0.4000000000000000222           0.55000000000000004441         0.0031601693646414741323      
0.4000000000000000222           0.60000000000000008882         0.0032308203536861590521      
0.4000000000000000222           0.6500000000000000222          0.0032372262764739367924      
0.4000000000000000222           0.70000000000000006661         0.0031784952237465802227      
0.4000000000000000222           0.75                           0.0030775309560142627419      
0.4000000000000000222           0.80000000000000004441         0.0029948960974057747819      
0.4000000000000000222           0.85000000000000008882         0.0030222948652407488623      
0.4000000000000000222           0.9000000000000000222          0.0032314341253616429839      
0.4000000000000000222           0.95000000000000006661         0.0035930193597404347372      
0.4500000000000000111           0                              0                             
0.4500000000000000111           0.050000000000000002776        0.0012046080660821356645      
0.4500000000000000111           0.10000000000000000555         0.001957938569404404916       
0.4500000000000000111           0.1500000000000000222          0.0023483252309040025807      
0.4500000000000000111           0.2000000000000000111          0.0025141694686088289501      
0.4500000000000000111           0.25                           0.0026001543306233276809      
0.4500000000000000111           0.30000000000000004441         0.0027008874447256303597      
0.4500000000000000111           0.35000000000000003331         0.0028469910343085214066      
0.4500000000000000111           0.4000000000000000222          0.0030280503143953474421      
0.4500000000000000111           0.4500000000000000111          0.0032190347651517292604      
0.4500000000000000111           0.5                            0.0033940749454628438286      
0.4500000000000000111           0.55000000000000004441         0.0035304574197390081736      
0.4500000000000000111           0.60000000000000008882         0.0036096641265761508777      
0.4500000000000000111           0.6500000000000000222          0.0036200789915485920289      
0.4500000000000000111           0.70000000000000006661         0.0035646227297869703676      
0.4500000000000000111           0.75                           0.0034739402931209806269      
0.4500000000000000111           0.80000000000000004441         0.0034161043220874987014      
0.4500000000000000111           0.85000000000000008882         0.0034809488790237264055      
0.4500000000000000111           0.9000000000000000222          0.0037237364969917585711      
0.4500000000000000111           0.95000000000000006661         0.004092588694998289256       
0.5                             0                              0                             
0.5                             0.050000000000000002776        0.0012394355191234218694      
0.5                             0.10000000000000000555         0.002053174621644560105       
0.5                             0.1500000000000000222          0.0025139027145335557378      
0.5                             0.2000000000000000111          0.002738713302596673671       
0.5                             0.25                           0.002862264687362392479       
0.5                             0.30000000000000004441         0.0029840830196476986202      
0.5                             0.35000000000000003331         0.0031449627914046374144      
0.5                             0.4000000000000000222          0.0033408600448605607625      
0.5                             0.4500000000000000111          0.0035478034414526682383      
0.5                             0.5                            0.0037381785221550778431      
0.5                             0.55000000000000004441         0.0038870777983301962877      
0.5                             0.60000000000000008882         0.0039747579098334817616      
0.5                             0.6500000000000000222          0.0039906420454094426731      
0.5                             0.70000000000000006661         0.0039422460190772223854      
0.5                             0.75                           0.0038677295900186869915      
0.5                             0.80000000000000004441         0.0038404731592376339933      
0.5                             0.85000000000000008882         0.003945262242554647969       
0.5                             0.9000000000000000222          0.0042196108171230761741      
0.5                             0.95000000000000006661         0.0045904825820413108772      
0.55000000000000004441          0                              0                             
0.55000000000000004441          0.050000000000000002776        0.0012631493454666742338      
0.55000000000000004441          0.10000000000000000555         0.0021281884159169983661      
0.55000000000000004441          0.1500000000000000222          0.0026553542407712349416      
0.55000000000000004441          0.2000000000000000111          0.0029412126595240728477      
0.55000000000000004441          0.25                           0.0031073779947363711074      
0.55000000000000004441          0.30000000000000004441         0.0032543432267451155582      
0.55000000000000004441          0.35000000000000003331         0.0034314046550132371038      
0.55000000000000004441          0.4000000000000000222          0.0036415214938507745046      
0.55000000000000004441          0.4500000000000000111          0.0038629989523439878241      
0.55000000000000004441          0.5                            0.0040672964906653952255      
0.55000000000000004441          0.55000000000000004441         0.0042277852494949641482      
0.55000000000000004441          0.60000000000000008882         0.004324012301635482558       
0.55000000000000004441          0.6500000000000000222          0.0043471899216867004867      
0.55000000000000004441          0.70000000000000006661         0.0043100064734566956304      
0.55000000000000004441          0.75                           0.0042576198169481660472      
0.55000000000000004441          0.80000000000000004441         0.0042665095199603264575      
0.55000000000000004441          0.85000000000000008882         0.00441371963679770829        
0.55000000000000004441          0.9000000000000000222          0.0047179545647968446076      
0.55000000000000004441          0.95000000000000006661         0.0050859811574095470377      
0.60000000000000008882          0                              0                             
0.60000000000000008882          0.050000000000000002776        0.0012761816685746829592      
0.60000000000000008882          0.10000000000000000555         0.0021830801561100177111      
0.60000000000000008882          0.1500000000000000222          0.002771595075610644443       
0.60000000000000008882          0.2000000000000000111          0.0031191643992214412862      
0.60000000000000008882          0.25                           0.0033322148465735335066      
0.60000000000000008882          0.30000000000000004441         0.0035085041843576636467      
0.60000000000000008882          0.35000000000000003331         0.0037036705493898036679      
0.60000000000000008882          0.4000000000000000222          0.0039277822280920915432      
0.60000000000000008882          0.4500000000000000111          0.0041624997244777972583      
0.60000000000000008882          0.5                            0.0043793051849754238702      
0.60000000000000008882          0.55000000000000004441         0.0045505046810654370404      
0.60000000000000008882          0.60000000000000008882         0.004655588755454020955       
0.60000000000000008882          0.6500000000000000222          0.0046883140573656945094      
0.60000000000000008882          0.70000000000000006661         0.0046669689775586942204      
0.60000000000000008882          0.75                           0.004642981588907080237       
0.60000000000000008882          0.80000000000000004441         0.0046937351940756766311      
0.60000000000000008882          0.85000000000000008882         0.0048860357305788859605      
0.60000000000000008882          0.9000000000000000222          0.005218664488690683001       
0.60000000000000008882          0.95000000000000006661         0.0055788440090163149421      
0.6500000000000000222           0                              0                             
0.6500000000000000222           0.050000000000000002776        0.0012791669070673084008      
0.6500000000000000222           0.10000000000000000555         0.0022182717638854487774      
0.6500000000000000222           0.1500000000000000222          0.0028618658448229528091      
0.6500000000000000222           0.2000000000000000111          0.0032702890242983784219      
0.6500000000000000222           0.25                           0.0035335317325742021666      
0.6500000000000000222           0.30000000000000004441         0.0037432648483646246973      
0.6500000000000000222           0.35000000000000003331         0.0039589326719380313335      
0.6500000000000000222           0.4000000000000000222          0.0041972809248580489339      
0.6500000000000000222           0.4500000000000000111          0.0044441883679746663205      
0.6500000000000000222           0.5                            0.0046721915563949778516      
0.6500000000000000222           0.55000000000000004441         0.0048533765350136093275      
0.6500000000000000222           0.60000000000000008882         0.0049679786141187953774      
0.6500000000000000222           0.6500000000000000222          0.0050130819551015282087      
0.6500000000000000222           0.70000000000000006661         0.0050128911628071204376      
0.6500000000000000222           0.75                           0.0050241777356769823371      
0.6500000000000000222           0.80000000000000004441         0.0051229173394087279547      
0.6500000000000000222           0.85000000000000008882         0.0053631019474962293714      
0.6500000000000000222           0.9000000000000000222          0.0057223733536262422206      
0.6500000000000000222           0.95000000000000006661         0.0060690896142323591533      
0.70000000000000006661          0                              0                             
0.70000000000000006661          0.050000000000000002776        0.0012730301800341070617      
0.70000000000000006661          0.10000000000000000555         0.0022347408831371318172      
0.70000000000000006661          0.1500000000000000222          0.0029260496117746725986      
0.70000000000000006661          0.2000000000000000111          0.0033928028914596009002      
0.70000000000000006661          0.25                           0.003708288884393784457       
0.70000000000000006661          0.30000000000000004441         0.003955261048851355099       
0.70000000000000006661          0.35000000000000003331         0.0041941909070501992574      
0.70000000000000006661          0.4000000000000000222          0.0044475331935385220561      
0.70000000000000006661          0.4500000000000000111          0.0047059454457150096118      
0.70000000000000006661          0.5                            0.0049440804817428851692      
0.70000000000000006661          0.55000000000000004441         0.0051348322644280131044      
0.70000000000000006661          0.60000000000000008882         0.0052601551028017556888      
0.70000000000000006661          0.6500000000000000222          0.0053213056804193303861      
0.70000000000000006661          0.70000000000000006661         0.0053485873054803789728      
0.70000000000000006661          0.75                           0.0054029016843062382947      
0.70000000000000006661          0.80000000000000004441         0.0055561665673922178144      
0.70000000000000006661          0.85000000000000008882         0.0058467547319269730366      
0.70000000000000006661          0.9000000000000000222          0.0062300629147458153057      
0.70000000000000006661          0.95000000000000006661         0.0065567240300634654915      
0.75                            0                              0                             
0.75                            0.050000000000000002776        0.001258899688678205564       
0.75                            0.10000000000000000555         0.0022340804906864075718      
0.75                            0.1500000000000000222          0.0029649493534438242648      
0.75                            0.2000000000000000111          0.0034857948103075298008      
0.75                            0.25                           0.0038539770341508017282      
0.75                            0.30000000000000004441         0.0041412709869113051298      
0.75                            0.35000000000000003331         0.0044063658390613991145      
0.75                            0.4000000000000000222          0.0046759636185782493811      
0.75                            0.4500000000000000111          0.0049456837434969092016      
0.75                            0.5                            0.0051933146157463472292      
0.75                            0.55000000000000004441         0.0053937607972127654676      
0.75                            0.60000000000000008882         0.0055318656333884774767      
0.75                            0.6500000000000000222          0.0056139486404964689115      
0.75                            0.70000000000000006661         0.0056763677225366571122      
0.75                            0.75                           0.0057824404773991755491      
0.75                            0.80000000000000004441         0.0059968261629874675123      