TITLE = 'DEM DATA | DEM DATA | DEM DATA | DEM DATA'
VARIABLES = 'X' 'Y' 'E' 
ZONE T='SubZone'
I=40 J=40 K=1 ZONETYPE=Ordered
DATAPACKING=POINT
DT=(SINGLE SINGLE SINGLE )
0                               0                              0                             
0                               0.025000000000000001388        0                             
0                               0.050000000000000002776        0                             
0                               0.075000000000000011102        0                             
0                               0.10000000000000000555         0                             
0                               0.125                          0                             
0                               0.1500000000000000222          0                             
0                               0.17500000000000001665         0                             
0                               0.2000000000000000111          0                             
0                               0.22500000000000000555         0                             
0                               0.25                           0                             
0                               0.2750000000000000222          0                             
0                               0.30000000000000004441         0                             
0                               0.3250000000000000111          0                             
0                               0.35000000000000003331         0                             
0                               0.375                          0                             
0                               0.4000000000000000222          0                             
0                               0.42500000000000004441         0                             
0                               0.4500000000000000111          0                             
0                               0.47500000000000003331         0                             
0                               0.5                            0                             
0                               0.5250000000000000222          0                             
0                               0.55000000000000004441         0                             
0                               0.57500000000000006661         0                             
0                               0.60000000000000008882         0                             
0                               0.625                          0                             
0                               0.6500000000000000222          0                             
0                               0.67500000000000004441         0                             
0                               0.70000000000000006661         0                             
0                               0.72500000000000008882         0                             
0                               0.75                           0                             
0                               0.7750000000000000222          0                             
0                               0.80000000000000004441         0                             
0                               0.82500000000000006661         0                             
0                               0.85000000000000008882         0                             
0                               0.875                          0                             
0                               0.9000000000000000222          0                             
0                               0.92500000000000004441         0                             
0                               0.95000000000000006661         0                             
0                               0.97500000000000008882         0                             
0.025000000000000001388         0                              0                             
0.025000000000000001388         0.025000000000000001388        6.4432919234524987928e-05     
0.025000000000000001388         0.050000000000000002776        7.7474157826440404051e-05     
0.025000000000000001388         0.075000000000000011102        7.2293148608348900552e-05     
0.025000000000000001388         0.10000000000000000555         6.5057315024263928649e-05     
0.025000000000000001388         0.125                          6.0605336054342373586e-05     
0.025000000000000001388         0.1500000000000000222          5.9145401257953977847e-05     
0.025000000000000001388         0.17500000000000001665         5.9896575968609866436e-05     
0.025000000000000001388         0.2000000000000000111          6.2201243619108836924e-05     
0.025000000000000001388         0.22500000000000000555         6.5674757240063996733e-05     
0.025000000000000001388         0.25                           7.0061837017298955743e-05     
0.025000000000000001388         0.2750000000000000222          7.5130499802789074693e-05     
0.025000000000000001388         0.30000000000000004441         8.0693858427682840784e-05     
0.025000000000000001388         0.3250000000000000111          8.6593776118304432998e-05     
0.025000000000000001388         0.35000000000000003331         9.2687750303133142893e-05     
0.025000000000000001388         0.375                          9.8841848922281982937e-05     
0.025000000000000001388         0.4000000000000000222          0.0001049272662239086884      
0.025000000000000001388         0.42500000000000004441         0.00011081892997411024737     
0.025000000000000001388         0.4500000000000000111          0.00011639530253915175706     
0.025000000000000001388         0.47500000000000003331         0.00012153887850097078172     
0.025000000000000001388         0.5                            0.00012613705864605861962     
0.025000000000000001388         0.5250000000000000222          0.00013008317391127732776     
0.025000000000000001388         0.55000000000000004441         0.00013327747985658611185     
0.025000000000000001388         0.57500000000000006661         0.00013562796944532884424     
0.025000000000000001388         0.60000000000000008882         0.00013705086002024913228     
0.025000000000000001388         0.625                          0.00013747060298330282535     
0.025000000000000001388         0.6500000000000000222          0.00013681923255726147204     
0.025000000000000001388         0.67500000000000004441         0.00013503479091547809787     
0.025000000000000001388         0.70000000000000006661         0.00013205840080243724799     
0.025000000000000001388         0.72500000000000008882         0.00012782920812082210205     
0.025000000000000001388         0.75                           0.0001222757025396425945      
0.025000000000000001388         0.7750000000000000222          0.0001153008427949853143      
0.025000000000000001388         0.80000000000000004441         0.00010676098973116943114     
0.025000000000000001388         0.82500000000000006661         9.6474153995496081393e-05     
0.025000000000000001388         0.85000000000000008882         8.4305919354266123378e-05     
0.025000000000000001388         0.875                          7.0305958146832381317e-05     
0.025000000000000001388         0.9000000000000000222          5.5291039297911126482e-05     
0.025000000000000001388         0.92500000000000004441         4.254453742214003853e-05      
0.025000000000000001388         0.95000000000000006661         4.0683258097251595586e-05     
0.025000000000000001388         0.97500000000000008882         6.4431374631190863056e-05     
0.050000000000000002776         0                              0                             
0.050000000000000002776         0.025000000000000001388        0.00010505392652349065941     
0.050000000000000002776         0.050000000000000002776        0.00014063730086766312866     
0.050000000000000002776         0.075000000000000011102        0.00014040620990751762065     
0.050000000000000002776         0.10000000000000000555         0.00013025552449419386392     
0.050000000000000002776         0.125                          0.00012222257025062965852     
0.050000000000000002776         0.1500000000000000222          0.0001191512638754055331      
0.050000000000000002776         0.17500000000000001665         0.00012042627426778196309     
0.050000000000000002776         0.2000000000000000111          0.00012490911432427864725     
0.050000000000000002776         0.22500000000000000555         0.00013174724490716549496     
0.050000000000000002776         0.25                           0.00014035492581387920552     
0.050000000000000002776         0.2750000000000000222          0.00015027909260623140142     
0.050000000000000002776         0.30000000000000004441         0.0001611544439223955294      
0.050000000000000002776         0.3250000000000000111          0.00017267331870152169415     
0.050000000000000002776         0.35000000000000003331         0.00018456293184954120079     
0.050000000000000002776         0.375                          0.00019657173795195603816     
0.050000000000000002776         0.4000000000000000222          0.00020846186138401279209     
0.050000000000000002776         0.42500000000000004441         0.00022000498460661432887     
0.050000000000000002776         0.4500000000000000111          0.00023098020281997477809     
0.050000000000000002776         0.47500000000000003331         0.00024117302802117990268     
0.050000000000000002776         0.5                            0.00025037507835601324757     
0.050000000000000002776         0.5250000000000000222          0.00025838417194923302134     
0.050000000000000002776         0.55000000000000004441         0.00026500463658463146999     
0.050000000000000002776         0.57500000000000006661         0.00027004768542560064759     
0.050000000000000002776         0.60000000000000008882         0.00027333170822352315099     
0.050000000000000002776         0.625                          0.00027468229295690704816     
0.050000000000000002776         0.6500000000000000222          0.00027393171821343820227     
0.050000000000000002776         0.67500000000000004441         0.00027091751452279488888     
0.050000000000000002776         0.70000000000000006661         0.00026547943245724958672     
0.050000000000000002776         0.72500000000000008882         0.00025745367144192066178     
0.050000000000000002776         0.75                           0.00024666250824423308075     
0.050000000000000002776         0.7750000000000000222          0.00023289816793203854672     
0.050000000000000002776         0.80000000000000004441         0.00021591258716657790728     
0.050000000000000002776         0.82500000000000006661         0.00019545765494055622469     
0.050000000000000002776         0.85000000000000008882         0.00017144699637761107169     
0.050000000000000002776         0.875                          0.00014450541392418969622     
0.050000000000000002776         0.9000000000000000222          0.00011756629783032934711     
0.050000000000000002776         0.92500000000000004441         9.8953431894921450862e-05     
0.050000000000000002776         0.95000000000000006661         0.00010482683542800685927     
0.050000000000000002776         0.97500000000000008882         0.00015418231933694848124     
0.075000000000000011102         0                              0                             
0.075000000000000011102         0.025000000000000001388        0.00013482165745681840008     
0.075000000000000011102         0.050000000000000002776        0.00019289481051831813829     
0.075000000000000011102         0.075000000000000011102        0.0002030507876096265818      
0.075000000000000011102         0.10000000000000000555         0.00019424971788550848828     
0.075000000000000011102         0.125                          0.0001843268614689641538      
0.075000000000000011102         0.1500000000000000222          0.00017990621924002248022     
0.075000000000000011102         0.17500000000000001665         0.00018157166636023625017     
0.075000000000000011102         0.2000000000000000111          0.00018809647170736631949     
0.075000000000000011102         0.22500000000000000555         0.00019823303907018363645     
0.075000000000000011102         0.25                           0.00021105276359190128233     
0.075000000000000011102         0.2750000000000000222          0.00022585922949036607577     
0.075000000000000011102         0.30000000000000004441         0.00024210010592029540533     
0.075000000000000011102         0.3250000000000000111          0.00025931302452875115705     
0.075000000000000011102         0.35000000000000003331         0.00027709088023186723149     
0.075000000000000011102         0.375                          0.00029506073903706742101     
0.075000000000000011102         0.4000000000000000222          0.0003128716710585344174      
0.075000000000000011102         0.42500000000000004441         0.00033018782167082427748     
0.075000000000000011102         0.4500000000000000111          0.00034668449456720651369     
0.075000000000000011102         0.47500000000000003331         0.0003620460057840446666      
0.075000000000000011102         0.5                            0.0003759645988434812125      
0.075000000000000011102         0.5250000000000000222          0.00038813998964748464005     
0.075000000000000011102         0.55000000000000004441         0.00039827925484359205655     
0.075000000000000011102         0.57500000000000006661         0.00040609684733206030671     
0.075000000000000011102         0.60000000000000008882         0.00041131454793852384455     
0.075000000000000011102         0.625                          0.00041366113890584088608     
0.075000000000000011102         0.6500000000000000222          0.00041287151648350395305     
0.075000000000000011102         0.67500000000000004441         0.00040868480137468132796     
0.075000000000000011102         0.70000000000000006661         0.00040084070528489945673     
0.075000000000000011102         0.72500000000000008882         0.00038907292687584416058     
0.075000000000000011102         0.75                           0.00037309825053366552083     
0.075000000000000011102         0.7750000000000000222          0.0003526044433532771194      
0.075000000000000011102         0.80000000000000004441         0.00032726342502442662408     
0.075000000000000011102         0.82500000000000006661         0.00029683324687246326334     
0.075000000000000011102         0.85000000000000008882         0.000261534781127226168       
0.075000000000000011102         0.875                          0.00022320503240469413697     
0.075000000000000011102         0.9000000000000000222          0.0001878203275844647635      
0.075000000000000011102         0.92500000000000004441         0.00016871245413319080342     
0.075000000000000011102         0.95000000000000006661         0.00018621031061116788408     
0.075000000000000011102         0.97500000000000008882         0.00025716914828755044198     
0.10000000000000000555          0                              0                             
0.10000000000000000555          0.025000000000000001388        0.00015860191553018765376     
0.10000000000000000555          0.050000000000000002776        0.00023735037113059576086     
0.10000000000000000555          0.075000000000000011102        0.00026031555484817836543     
0.10000000000000000555          0.10000000000000000555         0.00025616748163170832697     
0.10000000000000000555          0.125                          0.00024633480796287798853     
0.10000000000000000555          0.1500000000000000222          0.00024120082311274160247     
0.10000000000000000555          0.17500000000000001665         0.00024327643945354360255     
0.10000000000000000555          0.2000000000000000111          0.00025173256662758269897     
0.10000000000000000555          0.22500000000000000555         0.00026509041543820721643     
0.10000000000000000555          0.25                           0.00028209733748929544106     
0.10000000000000000555          0.2750000000000000222          0.00030179721251610835964     
0.10000000000000000555          0.30000000000000004441         0.00032343868588591284663     
0.10000000000000000555          0.3250000000000000111          0.00034639774014144641967     
0.10000000000000000555          0.35000000000000003331         0.00037012849609285858321     
0.10000000000000000555          0.375                          0.00039413358694129208004     
0.10000000000000000555          0.4000000000000000222          0.00041794682978446573429     
0.10000000000000000555          0.42500000000000004441         0.00044112314831590282438     
0.10000000000000000555          0.4500000000000000111          0.00046323267695846936931     
0.10000000000000000555          0.47500000000000003331         0.00048385731559341671471     
0.10000000000000000555          0.5                            0.00050258875463748964307     
0.10000000000000000555          0.5250000000000000222          0.00051902738663800462859     
0.10000000000000000555          0.55000000000000004441         0.0005327817289420000435      
0.10000000000000000555          0.57500000000000006661         0.00054346808372973676171     
0.10000000000000000555          0.60000000000000008882         0.00055071020451946672836     
0.10000000000000000555          0.625                          0.00055413871998877262115     
0.10000000000000000555          0.6500000000000000222          0.00055338999493459439805     
0.10000000000000000555          0.67500000000000004441         0.00054810393725945871779     
0.10000000000000000555          0.70000000000000006661         0.0005379199608874785099      
0.10000000000000000555          0.72500000000000008882         0.00052247005816496994157     
0.10000000000000000555          0.75                           0.00050136933902589220224     
0.10000000000000000555          0.7750000000000000222          0.00047421466340225038039     
0.10000000000000000555          0.80000000000000004441         0.0004406396084974950611      
0.10000000000000000555          0.82500000000000006661         0.00040053023521835484644     
0.10000000000000000555          0.85000000000000008882         0.00035474238130128732394     
0.10000000000000000555          0.875                          0.00030688789744481859145     
0.10000000000000000555          0.9000000000000000222          0.00026631889925821106146     
0.10000000000000000555          0.92500000000000004441         0.00025029475342908114044     
0.10000000000000000555          0.95000000000000006661         0.00028024946820326412933     
0.10000000000000000555          0.97500000000000008882         0.00036825569282039616326     
0.125                           0                              0                             
0.125                           0.025000000000000001388        0.00017856556992201788603     
0.125                           0.050000000000000002776        0.00027608779910237579713     
0.125                           0.075000000000000011102        0.00031275467990599103985     
0.125                           0.10000000000000000555         0.00031556639163476951637     
0.125                           0.125                          0.00030772856675920223779     
0.125                           0.1500000000000000222          0.00030276529897377280065     
0.125                           0.17500000000000001665         0.0003054414411838290988      
0.125                           0.2000000000000000111          0.00031577132032789556604     
0.125                           0.22500000000000000555         0.00033227290547443999458     
0.125                           0.25                           0.0003534290418962804381      
0.125                           0.2750000000000000222          0.00037802098962824715045     
0.125                           0.30000000000000004441         0.00040508736083966212504     
0.125                           0.3250000000000000111          0.00043383490112325340249     
0.125                           0.35000000000000003331         0.00046357416863496148096     
0.125                           0.375                          0.0004936801509973776092      
0.125                           0.4000000000000000222          0.00052356907301298605262     
0.125                           0.42500000000000004441         0.00055268478108372320889     
0.125                           0.4500000000000000111          0.00058049065555709766784     
0.125                           0.47500000000000003331         0.00060646475193215643174     
0.125                           0.5                            0.00063009687514292700428     
0.125                           0.5250000000000000222          0.00065088682835101607793     
0.125                           0.55000000000000004441         0.00066834335687748769317     
0.125                           0.57500000000000006661         0.00068198345514058900108     
0.125                           0.60000000000000008882         0.00069133176178093336262     
0.125                           0.625                          0.00069591976661875776244     
0.125                           0.6500000000000000222          0.00069528448026923150849     
0.125                           0.67500000000000004441         0.00068896605074320049766     
0.125                           0.70000000000000006661         0.00067650359622395406234     
0.125                           0.72500000000000008882         0.00065742886319064552936     
0.125                           0.75                           0.00063126144113412330228     
0.125                           0.7750000000000000222          0.00059752845389526854092     
0.125                           0.80000000000000004441         0.00055588714876453337865     
0.125                           0.82500000000000006661         0.00050651669040191471538     
0.125                           0.85000000000000008882         0.00045124511207084161413     
0.125                           0.875                          0.00039583127662434769434     
0.125                           0.9000000000000000222          0.000352830267538850606       
0.125                           0.92500000000000004441         0.00034202995164034355469     
0.125                           0.95000000000000006661         0.00038385169254340212319     
0.125                           0.97500000000000008882         0.00048481942456080062698     
0.1500000000000000222           0                              0                             
0.1500000000000000222           0.025000000000000001388        0.00019583305313886079091     
0.1500000000000000222           0.050000000000000002776        0.00031045238603755187512     
0.1500000000000000222           0.075000000000000011102        0.00036097802592038874536     
0.1500000000000000222           0.10000000000000000555         0.00037228233431196855463     
0.1500000000000000222           0.125                          0.00036810159004252440695     
0.1500000000000000222           0.1500000000000000222          0.00036431001556014308562     
0.1500000000000000222           0.17500000000000001665         0.00036792983320710348494     
0.1500000000000000222           0.2000000000000000111          0.00038014739295033628252     
0.1500000000000000222           0.22500000000000000555         0.00039972725271342213205     
0.1500000000000000222           0.25                           0.00042498543764657448207     
0.1500000000000000222           0.2750000000000000222          0.00045445592856685479433     
0.1500000000000000222           0.30000000000000004441         0.00048696029110795180372     
0.1500000000000000222           0.3250000000000000111          0.00052152836011076786349     
0.1500000000000000222           0.35000000000000003331         0.00055732192246660261503     
0.1500000000000000222           0.375                          0.00059358486549454525516     
0.1500000000000000222           0.4000000000000000222          0.00062961337153377705533     
0.1500000000000000222           0.42500000000000004441         0.00066473832058333570671     
0.1500000000000000222           0.4500000000000000111          0.00069831476649562240766     
0.1500000000000000222           0.47500000000000003331         0.00072971553188971860493     
0.1500000000000000222           0.5                            0.00075832725907520881492     
0.1500000000000000222           0.5250000000000000222          0.00078354795645685371142     
0.1500000000000000222           0.55000000000000004441         0.0008047854501433970853      
0.1500000000000000222           0.57500000000000006661         0.00082145633772512383075     
0.1500000000000000222           0.60000000000000008882         0.00083298513323781797624     
0.1500000000000000222           0.625                          0.00083880329745755766169     
0.1500000000000000222           0.6500000000000000222          0.00083834778907188045594     
0.1500000000000000222           0.67500000000000004441         0.00083105863993915285448     
0.1500000000000000222           0.70000000000000006661         0.00081637507939880116226     
0.1500000000000000222           0.72500000000000008882         0.0007937312459103118556      
0.1500000000000000222           0.75                           0.00076256103604510627747     
0.1500000000000000222           0.7750000000000000222          0.00072235348563109980091     
0.1500000000000000222           0.80000000000000004441         0.0006728731748120164724      
0.1500000000000000222           0.82500000000000006661         0.00061478342414233999591     
0.1500000000000000222           0.85000000000000008882         0.00055117706018514844857     
0.1500000000000000222           0.875                          0.00049011097714046769624     
0.1500000000000000222           0.9000000000000000222          0.00044685562453161686847     
0.1500000000000000222           0.92500000000000004441         0.00044241115991150437026     
0.1500000000000000222           0.95000000000000006661         0.00049489554683335157392     
0.1500000000000000222           0.97500000000000008882         0.00060530842134065565574     
0.17500000000000001665          0                              0                             
0.17500000000000001665          0.025000000000000001388        0.00021105139177257647987     
0.17500000000000001665          0.050000000000000002776        0.00034132944267883935652     
0.17500000000000001665          0.075000000000000011102        0.00040551937917587821403     
0.17500000000000001665          0.10000000000000000555         0.00042630259712206353129     
0.17500000000000001665          0.125                          0.00042715592047959383137     
0.17500000000000001665          0.1500000000000000222          0.00042555435269320263103     
0.17500000000000001665          0.17500000000000001665         0.00043057766250287343723     
0.17500000000000001665          0.2000000000000000111          0.00044477509766083223042     
0.17500000000000001665          0.22500000000000000555         0.00046739144106555663427     
0.17500000000000001665          0.25                           0.00049670068777896148049     
0.17500000000000001665          0.2750000000000000222          0.00053102514812319867588     
0.17500000000000001665          0.30000000000000004441         0.00056896931567873565427     
0.17500000000000001665          0.3250000000000000111          0.00060937946980277324371     
0.17500000000000001665          0.35000000000000003331         0.00065126317738450900663     
0.17500000000000001665          0.375                          0.00069372952137469745537     
0.17500000000000001665          0.4000000000000000222          0.00073595206257537348904     
0.17500000000000001665          0.42500000000000004441         0.00077714677604223680873     
0.17500000000000001665          0.4500000000000000111          0.00081655881298581256544     
0.17500000000000001665          0.47500000000000003331         0.00085345439713280235594     
0.17500000000000001665          0.5                            0.00088711577126332485932     
0.17500000000000001665          0.5250000000000000222          0.00091683799959496603549     
0.17500000000000001665          0.55000000000000004441         0.00094192690850913862732     
0.17500000000000001665          0.57500000000000006661         0.0009616976910977736992      
0.17500000000000001665          0.60000000000000008882         0.00097547382158169604338     
0.17500000000000001665          0.625                          0.00098258595402556103693     
0.17500000000000001665          0.6500000000000000222          0.0009823704415112821664      
0.17500000000000001665          0.67500000000000004441         0.00097416708093733817009     
0.17500000000000001665          0.70000000000000006661         0.0009573161962144194348      
0.17500000000000001665          0.72500000000000008882         0.00093115868470716733896     
0.17500000000000001665          0.75                           0.00089505764156516676167     
0.17500000000000001665          0.7750000000000000222          0.00084850796645574710908     
0.17500000000000001665          0.80000000000000004441         0.00079148350098412478815     
0.17500000000000001665          0.82500000000000006661         0.00072532698576766030385     
0.17500000000000001665          0.85000000000000008882         0.00065460951058149419168     
0.17500000000000001665          0.875                          0.00058964261135319162577     
0.17500000000000001665          0.9000000000000000222          0.00054778200007254973514     