TITLE = 'DEM DATA | DEM DATA | DEM DATA | DEM DATA'
VARIABLES = 'X' 'Y' 'E' 
ZONE T='SubZone'
I=80 J=80 K=1 ZONETYPE=Ordered
DATAPACKING=POINT
DT=(SINGLE SINGLE SINGLE )
0                               0                              0                             
0                               0.012500000000000000694        0                             
0                               0.025000000000000001388        0                             
0                               0.037500000000000005551        0                             
0                               0.050000000000000002776        0                             
0                               0.0625                         0                             
0                               0.075000000000000011102        0                             
0                               0.087500000000000008327        0                             
0                               0.10000000000000000555         0                             
0                               0.11250000000000000278         0                             
0                               0.125                          0                             
0                               0.1375000000000000111          0                             
0                               0.1500000000000000222          0                             
0                               0.16250000000000000555         0                             
0                               0.17500000000000001665         0                             
0                               0.1875                         0                             
0                               0.2000000000000000111          0                             
0                               0.2125000000000000222          0                             
0                               0.22500000000000000555         0                             
0                               0.23750000000000001665         0                             
0                               0.25                           0                             
0                               0.2625000000000000111          0                             
0                               0.2750000000000000222          0                             
0                               0.28750000000000003331         0                             
0                               0.30000000000000004441         0                             
0                               0.3125                         0                             
0                               0.3250000000000000111          0                             
0                               0.3375000000000000222          0                             
0                               0.35000000000000003331         0                             
0                               0.36250000000000004441         0                             
0                               0.375                          0                             
0                               0.3875000000000000111          0                             
0                               0.4000000000000000222          0                             
0                               0.41250000000000003331         0                             
0                               0.42500000000000004441         0                             
0                               0.4375                         0                             
0                               0.4500000000000000111          0                             
0                               0.4625000000000000222          0                             
0                               0.47500000000000003331         0                             
0                               0.48750000000000004441         0                             
0                               0.5                            0                             
0                               0.51250000000000006661         0                             
0                               0.5250000000000000222          0                             
0                               0.5374999999999999778          0                             
0                               0.55000000000000004441         0                             
0                               0.5625                         0                             
0                               0.57500000000000006661         0                             
0                               0.5875000000000000222          0                             
0                               0.60000000000000008882         0                             
0                               0.61250000000000004441         0                             
0                               0.625                          0                             
0                               0.63750000000000006661         0                             
0                               0.6500000000000000222          0                             
0                               0.66250000000000008882         0                             
0                               0.67500000000000004441         0                             
0                               0.6875                         0                             
0                               0.70000000000000006661         0                             
0                               0.7125000000000000222          0                             
0                               0.72500000000000008882         0                             
0                               0.73750000000000004441         0                             
0                               0.75                           0                             
0                               0.76250000000000006661         0                             
0                               0.7750000000000000222          0                             
0                               0.78750000000000008882         0                             
0                               0.80000000000000004441         0                             
0                               0.8125                         0                             
0                               0.82500000000000006661         0                             
0                               0.8375000000000000222          0                             
0                               0.85000000000000008882         0                             
0                               0.86250000000000004441         0                             
0                               0.875                          0                             
0                               0.88750000000000006661         0                             
0                               0.9000000000000000222          0                             
0                               0.91250000000000008882         0                             
0                               0.92500000000000004441         0                             
0                               0.9375                         0                             
0                               0.95000000000000006661         0                             
0                               0.9625000000000000222          0                             
0                               0.97500000000000008882         0                             
0                               0.98750000000000004441         0                             
0.012500000000000000694         0                              0                             
0.012500000000000000694         0.012500000000000000694        8.835816117214179144e-006     
0.012500000000000000694         0.025000000000000001388        1.1977386199069073314e-005    
0.012500000000000000694         0.037500000000000005551        1.2279397218151189008e-005    
0.012500000000000000694         0.050000000000000002776        1.1460359386150642536e-005    
0.012500000000000000694         0.0625                         1.0411541337296270626e-005    
0.012500000000000000694         0.075000000000000011102        9.4901755585130587178e-006    
0.012500000000000000694         0.087500000000000008327        8.7797433534486657436e-006    
0.012500000000000000694         0.10000000000000000555         8.2592152097493709562e-006    
0.012500000000000000694         0.11250000000000000278         7.8850433478105941276e-006    
0.012500000000000000694         0.125                          7.6195437055393000492e-006    
0.012500000000000000694         0.1375000000000000111          7.4357447408246457599e-006    
0.012500000000000000694         0.1500000000000000222          7.31521925767530945e-006      
0.012500000000000000694         0.16250000000000000555         7.2452115189580723609e-006    
0.012500000000000000694         0.17500000000000001665         7.2165704334548053112e-006    
0.012500000000000000694         0.1875                         7.2224690204070185473e-006    
0.012500000000000000694         0.2000000000000000111          7.2576562102355524075e-006    
0.012500000000000000694         0.2125000000000000222          7.3181050361803556825e-006    
0.012500000000000000694         0.22500000000000000555         7.4000374776783672814e-006    
0.012500000000000000694         0.23750000000000001665         7.4998882904075969691e-006    
0.012500000000000000694         0.25                           7.6147022416428455927e-006    
0.012500000000000000694         0.2625000000000000111          7.7420262627470037842e-006    
0.012500000000000000694         0.2750000000000000222          7.8797806306596385184e-006    
0.012500000000000000694         0.28750000000000003331         8.0261628929712003355e-006    
0.012500000000000000694         0.30000000000000004441         8.1795792665761979379e-006    
0.012500000000000000694         0.3125                         8.3385943048241983888e-006    
0.012500000000000000694         0.3250000000000000111          8.5018945006343216164e-006    
0.012500000000000000694         0.3375000000000000222          8.6682611075694637748e-006    
0.012500000000000000694         0.35000000000000003331         8.8365498480680315652e-006    
0.012500000000000000694         0.36250000000000004441         9.0056761010703922921e-006    
0.012500000000000000694         0.375                          9.1746035375539491952e-006    
0.012500000000000000694         0.3875000000000000111          9.3423358979993764706e-006    
0.012500000000000000694         0.4000000000000000222          9.5079109330153954716e-006    
0.012500000000000000694         0.41250000000000003331         9.6703958807342615955e-006    
0.012500000000000000694         0.42500000000000004441         9.8288845800098556538e-006    
0.012500000000000000694         0.4375                         9.9824951160787378512e-006    
0.012500000000000000694         0.4500000000000000111          1.0130368576444226392e-005    
0.012500000000000000694         0.4625000000000000222          1.027166814071556189e-005     
0.012500000000000000694         0.47500000000000003331         1.0405578559247175008e-005    
0.012500000000000000694         0.48750000000000004441         1.0531305815186797759e-005    
0.012500000000000000694         0.5                            1.0648077058306171239e-005    
0.012500000000000000694         0.51250000000000006661         1.0755140242402205786e-005    
0.012500000000000000694         0.5250000000000000222          1.0851763566410710382e-005    
0.012500000000000000694         0.5374999999999999778          1.0937235157104652217e-005    
0.012500000000000000694         0.55000000000000004441         1.1010861728832921358e-005    
0.012500000000000000694         0.5625                         1.1071967194853371552e-005    
0.012500000000000000694         0.57500000000000006661         1.1119890485744576836e-005    
0.012500000000000000694         0.5875000000000000222          1.1153982567790876601e-005    
0.012500000000000000694         0.60000000000000008882         1.1173602754599443188e-005    
0.012500000000000000694         0.61250000000000004441         1.117811358763987073e-005     
0.012500000000000000694         0.625                          1.1166874460233344735e-005    
0.012500000000000000694         0.63750000000000006661         1.1139233595747199956e-005    
0.012500000000000000694         0.6500000000000000222          1.1094517762710864872e-005    
0.012500000000000000694         0.66250000000000008882         1.1032019264334280706e-005    
0.012500000000000000694         0.67500000000000004441         1.0950979853596720659e-005    
0.012500000000000000694         0.6875                         1.0850569635012519143e-005    
0.012500000000000000694         0.70000000000000006661         1.0729860955072112461e-005    
0.012500000000000000694         0.7125000000000000222          1.0587793884964114e-005       
0.012500000000000000694         0.72500000000000008882         1.0423131931336371281e-005    
0.012500000000000000694         0.73750000000000004441         1.0234403418962756405e-005    
0.012500000000000000694         0.75                           1.0019822770601649609e-005    
0.012500000000000000694         0.76250000000000006661         9.7771848976968556144e-006    
0.012500000000000000694         0.7750000000000000222          9.5037271095055331216e-006    
0.012500000000000000694         0.78750000000000008882         9.196028482483242783e-006     
0.012500000000000000694         0.80000000000000004441         8.8507855326991347056e-006    
0.012500000000000000694         0.8125                         8.4716958295150135427e-006    
0.012500000000000000694         0.82500000000000006661         8.0659521681791801484e-006    
0.012500000000000000694         0.8375000000000000222          7.6358821541333554705e-006    
0.012500000000000000694         0.85000000000000008882         7.183813215405621122e-006     
0.012500000000000000694         0.86250000000000004441         6.7133580936573622466e-006    
0.012500000000000000694         0.875                          6.2305531840500805174e-006    
0.012500000000000000694         0.88750000000000006661         5.7463700666726680311e-006    
0.012500000000000000694         0.9000000000000000222          5.2830738925813136575e-006    
0.012500000000000000694         0.91250000000000008882         4.8900326956591300132e-006    
0.012500000000000000694         0.92500000000000004441         4.6791510852628448447e-006    
0.012500000000000000694         0.9375                         4.8912132644129968639e-006    
0.012500000000000000694         0.95000000000000006661         5.9878385512135423596e-006    
0.012500000000000000694         0.9625000000000000222          8.7076177508471630517e-006    
0.012500000000000000694         0.97500000000000008882         1.39200721240850811e-005      
0.012500000000000000694         0.98750000000000004441         2.1989400348143561814e-005    
0.025000000000000001388         0                              0                             
0.025000000000000001388         0.012500000000000000694        1.4458537707984220333e-005    
0.025000000000000001388         0.025000000000000001388        2.1238361377795555995e-005    
0.025000000000000001388         0.037500000000000005551        2.3043461323313252365e-005    
0.025000000000000001388         0.050000000000000002776        2.2307381805974912936e-005    
0.025000000000000001388         0.0625                         2.0672890306716595887e-005    
0.025000000000000001388         0.075000000000000011102        1.8999487212845167505e-005    
0.025000000000000001388         0.087500000000000008327        1.7610918739752179363e-005    
0.025000000000000001388         0.10000000000000000555         1.6557385662974155593e-005    
0.025000000000000001388         0.11250000000000000278         1.5789898306639571501e-005    
0.025000000000000001388         0.125                          1.5243673638476451515e-005    
0.025000000000000001388         0.1375000000000000111          1.486556641072667162e-005     
0.025000000000000001388         0.1500000000000000222          1.4617379809678254787e-005    
0.025000000000000001388         0.16250000000000000555         1.4472377919627632537e-005    
0.025000000000000001388         0.17500000000000001665         1.4411477517572990337e-005    
0.025000000000000001388         0.1875                         1.4420566920803068456e-005    
0.025000000000000001388         0.2000000000000000111          1.4488841632021021155e-005    
0.025000000000000001388         0.2125000000000000222          1.4607736718019737054e-005    
0.025000000000000001388         0.22500000000000000555         1.4769920460899754744e-005    
0.025000000000000001388         0.23750000000000001665         1.496894277441818133e-005     
0.025000000000000001388         0.25                           1.5199298190715637702e-005    
0.025000000000000001388         0.2625000000000000111          1.545629607457854604e-005     
0.025000000000000001388         0.2750000000000000222          1.5735873602373828817e-005    
0.025000000000000001388         0.28750000000000003331         1.6034442931411874156e-005    
0.025000000000000001388         0.30000000000000004441         1.6348778566488419983e-005    
0.025000000000000001388         0.3125                         1.6675933888432581398e-005    
0.025000000000000001388         0.3250000000000000111          1.70131795107497652e-005      
0.025000000000000001388         0.3375000000000000222          1.7357957077690500114e-005    
0.025000000000000001388         0.35000000000000003331         1.770784403354319636e-005     
0.025000000000000001388         0.36250000000000004441         1.8060527625873845636e-005    
0.025000000000000001388         0.375                          1.8413784218296314066e-005    
0.025000000000000001388         0.3875000000000000111          1.8765464355086081127e-005    
0.025000000000000001388         0.4000000000000000222          1.9113481126931120002e-005    
0.025000000000000001388         0.41250000000000003331         1.9455801191003985195e-005    
0.025000000000000001388         0.42500000000000004441         1.9790438519295960873e-005    
0.025000000000000001388         0.4375                         2.0115449424151776725e-005    
0.025000000000000001388         0.4500000000000000111          2.0428929137672469096e-005    
0.025000000000000001388         0.4625000000000000222          2.0729009550191079825e-005    
0.025000000000000001388         0.47500000000000003331         2.1013857298246563232e-005    
0.025000000000000001388         0.48750000000000004441         2.128167304982220287e-005     
0.025000000000000001388         0.5                            2.1530690709870015098e-005    
0.025000000000000001388         0.51250000000000006661         2.1759176965119308989e-005    
0.025000000000000001388         0.5250000000000000222          2.1965431330261964149e-005    
0.025000000000000001388         0.5374999999999999778          2.2147785555759469389e-005    
0.025000000000000001388         0.55000000000000004441         2.2304603572775860698e-005    
0.025000000000000001388         0.5625                         2.2434280475769341479e-005    
0.025000000000000001388         0.57500000000000006661         2.2535241594123789355e-005    
0.025000000000000001388         0.5875000000000000222          2.2605940436459803777e-005    
0.025000000000000001388         0.60000000000000008882         2.2644856574993710296e-005    
0.025000000000000001388         0.61250000000000004441         2.2650491724895971402e-005    
0.025000000000000001388         0.625                          2.2621364838215640702e-005    
0.025000000000000001388         0.63750000000000006661         2.2556005736751316704e-005    
0.025000000000000001388         0.6500000000000000222          2.24529461669842334e-005      
0.025000000000000001388         0.66250000000000008882         2.2310708662542921843e-005    
0.025000000000000001388         0.67500000000000004441         2.2127791887482928246e-005    
0.025000000000000001388         0.6875                         2.1902651486715996043e-005    
0.025000000000000001388         0.70000000000000006661         2.1633675671539620566e-005    
0.025000000000000001388         0.7125000000000000222          2.1319153329146800502e-005    
0.025000000000000001388         0.72500000000000008882         2.0957232686802385047e-005    
0.025000000000000001388         0.73750000000000004441         2.0545867059240663366e-005    
0.025000000000000001388         0.75                           2.008274349352134891e-005     
0.025000000000000001388         0.76250000000000006661         1.95651932568541298e-005      
0.025000000000000001388         0.7750000000000000222          1.8990116039230287015e-005    
0.025000000000000001388         0.78750000000000008882         1.8354186457347765327e-005    
0.025000000000000001388         0.80000000000000004441         1.7655560108131851393e-005    
0.025000000000000001388         0.8125                         1.6897831451423428462e-005    
0.025000000000000001388         0.82500000000000006661         1.6087563492250822605e-005    
0.025000000000000001388         0.8375000000000000222          1.5229594401588997243e-005    
0.025000000000000001388         0.85000000000000008882         1.4329370547905284639e-005    
0.025000000000000001388         0.86250000000000004441         1.3395428416274057781e-005    
0.025000000000000001388         0.875                          1.2442744682372719467e-005    
0.025000000000000001388         0.88750000000000006661         1.1500387494312036551e-005    
0.025000000000000001388         0.9000000000000000222          1.0630104361863956797e-005    
0.025000000000000001388         0.91250000000000008882         9.9680073537555813346e-006    
0.025000000000000001388         0.92500000000000004441         9.8045596776952237406e-006    
0.025000000000000001388         0.9375                         1.0704326846466827305e-005    
0.025000000000000001388         0.95000000000000006661         1.3614503248104981026e-005    
0.025000000000000001388         0.9625000000000000222          1.9814118758620935523e-005    
0.025000000000000001388         0.97500000000000008882         3.0467233443909336188e-005    
0.025000000000000001388         0.98750000000000004441         4.5586431141941829992e-005    
0.037500000000000005551         0                              0                             
0.037500000000000005551         0.012500000000000000694        1.8588605929181767351e-005    
0.037500000000000005551         0.025000000000000001388        2.8669275562664964241e-005    
0.037500000000000005551         0.037500000000000005551        3.2433849028734584863e-005    
0.037500000000000005551         0.050000000000000002776        3.2399147367634384409e-005    
0.037500000000000005551         0.0625                         3.0631298232330905762e-005    
0.037500000000000005551         0.075000000000000011102        2.8439928427825833523e-005    
0.037500000000000005551         0.087500000000000008327        2.6457779446431572978e-005    
0.037500000000000005551         0.10000000000000000555         2.4884248816636755919e-005    
0.037500000000000005551         0.11250000000000000278         2.3712894144045648659e-005    
0.037500000000000005551         0.125                          2.2872345186275566675e-005    
0.037500000000000005551         0.1375000000000000111          2.2289090463756267013e-005    
0.037500000000000005551         0.1500000000000000222          2.1905536213839837956e-005    
0.037500000000000005551         0.16250000000000000555         2.1680113220678975949e-005    
0.037500000000000005551         0.17500000000000001665         2.1583024480298362846e-005    
0.037500000000000005551         0.1875                         2.1592357863253752726e-005    
0.037500000000000005551         0.2000000000000000111          2.1691420869718314179e-005    
0.037500000000000005551         0.2125000000000000222          2.1866984674767664387e-005    
0.037500000000000005551         0.22500000000000000555         2.210802830049374279e-005     
0.037500000000000005551         0.23750000000000001665         2.2405098448530225141e-005    
0.037500000000000005551         0.25                           2.2750088465306461671e-005    
0.037500000000000005551         0.2625000000000000111          2.3136020477654284377e-005    
0.037500000000000005551         0.2750000000000000222          2.3556800980539804868e-005    
0.037500000000000005551         0.28750000000000003331         2.4007014025384521005e-005    
0.037500000000000005551         0.30000000000000004441         2.4481764869133115781e-005    
0.037500000000000005551         0.3125                         2.4976563488321446016e-005    
0.037500000000000005551         0.3250000000000000111          2.5487237801602447007e-005    
0.037500000000000005551         0.3375000000000000222          2.6009868461684959584e-005    
0.037500000000000005551         0.35000000000000003331         2.6540738915281636423e-005    
0.037500000000000005551         0.36250000000000004441         2.7076297546724248377e-005    
0.037500000000000005551         0.375                          2.7613128296577471588e-005    
0.037500000000000005551         0.3875000000000000111          2.8147928134769628628e-005    
0.037500000000000005551         0.4000000000000000222          2.8677489681383505626e-005    
0.037500000000000005551         0.41250000000000003331         2.919868743322950877e-005     
0.037500000000000005551         0.42500000000000004441         2.9708467950806394242e-005    
0.037500000000000005551         0.4375                         3.0203840980513874115e-005    
0.037500000000000005551         0.4500000000000000111          3.0681874211291315646e-005    
0.037500000000000005551         0.4625000000000000222          3.1139688368986284672e-005    
0.037500000000000005551         0.47500000000000003331         3.157445356682941906e-005     
0.037500000000000005551         0.48750000000000004441         3.1983387390077666623e-005    
0.037500000000000005551         0.5                            3.2363752358710584645e-005    
0.037500000000000005551         0.51250000000000006661         3.2712855360994552711e-005    
0.037500000000000005551         0.5250000000000000222          3.3028046055871840281e-005    
0.037500000000000005551         0.5374999999999999778          3.3306716452852214161e-005    
0.037500000000000005551         0.55000000000000004441         3.3546300177489385419e-005    
0.037500000000000005551         0.5625                         3.3744271811020354335e-005    
0.037500000000000005551         0.57500000000000006661         3.3898145687993874731e-005    
0.037500000000000005551         0.5875000000000000222          3.4005474716769512611e-005    
0.037500000000000005551         0.60000000000000008882         3.4063848558085751961e-005    
0.037500000000000005551         0.61250000000000004441         3.4070891077320197837e-005    
0.037500000000000005551         0.625                          3.4024256658993223823e-005    
0.037500000000000005551         0.63750000000000006661         3.3921625607780114819e-005    
0.037500000000000005551         0.6500000000000000222          3.3760697631057823287e-005    
0.037500000000000005551         0.66250000000000008882         3.3539183301067865273e-005    
0.037500000000000005551         0.67500000000000004441         3.3254793187387221565e-005    
0.037500000000000005551         0.6875                         3.2905222829393565576e-005    
0.037500000000000005551         0.70000000000000006661         3.248813389156168796e-005     
0.037500000000000005551         0.7125000000000000222          3.2001128877245932358e-005    
0.037500000000000005551         0.72500000000000008882         3.1441718251645767168e-005    
0.037500000000000005551         0.73750000000000004441         3.0807277379585329413e-005    
0.037500000000000005551         0.75                           3.0094991134710369352e-005    
0.037500000000000005551         0.76250000000000006661         2.9301799186809418529e-005    
0.037500000000000005551         0.7750000000000000222          2.8424432733098470294e-005    
0.037500000000000005551         0.78750000000000008882         2.7459948539476641827e-005    
0.037500000000000005551         0.80000000000000004441         2.6407597110145175634e-005    
0.037500000000000005551         0.8125                         2.5271242847901831396e-005    
0.037500000000000005551         0.82500000000000006661         2.405775413327759793e-005     
0.037500000000000005551         0.8375000000000000222          2.2774422142601835617e-005    
0.037500000000000005551         0.85000000000000008882         2.1430704317371152001e-005    
0.037500000000000005551         0.86250000000000004441         2.004200475003159454e-005     
0.037500000000000005551         0.875                          1.8636765704460600546e-005    
0.037500000000000005551         0.88750000000000006661         1.7272738828566502889e-005    
0.037500000000000005551         0.9000000000000000222          1.607364233824348787e-005     