TITLE = 'DEM DATA | DEM DATA | DEM DATA | DEM DATA'
VARIABLES = 'X' 'Y' 'E' 
ZONE T='SubZone'
I=80 J=80 K=1 ZONETYPE=Ordered
DATAPACKING=POINT
DT=(SINGLE SINGLE SINGLE )
0                               0                              1.1000000000000000888         
0                               0.012500000000000000694        1.1000000000000000888         
0                               0.025000000000000001388        1.1000000000000000888         
0                               0.037500000000000005551        1.1000000000000000888         
0                               0.050000000000000002776        1.1000000000000000888         
0                               0.0625                         1.1000000000000000888         
0                               0.075000000000000011102        1.1000000000000000888         
0                               0.087500000000000008327        1.1000000000000000888         
0                               0.10000000000000000555         1.1000000000000000888         
0                               0.11250000000000000278         1.1000000000000000888         
0                               0.125                          1.1000000000000000888         
0                               0.1375000000000000111          1.1000000000000000888         
0                               0.1500000000000000222          1.1000000000000000888         
0                               0.16250000000000000555         1.1000000000000000888         
0                               0.17500000000000001665         1.1000000000000000888         
0                               0.1875                         1.1000000000000000888         
0                               0.2000000000000000111          1.1000000000000000888         
0                               0.2125000000000000222          1.1000000000000000888         
0                               0.22500000000000000555         1.1000000000000000888         
0                               0.23750000000000001665         1.1000000000000000888         
0                               0.25                           1.1000000000000000888         
0                               0.2625000000000000111          1.1000000000000000888         
0                               0.2750000000000000222          1.1000000000000000888         
0                               0.28750000000000003331         1.1000000000000000888         
0                               0.30000000000000004441         1.1000000000000000888         
0                               0.3125                         1.1000000000000000888         
0                               0.3250000000000000111          1.1000000000000000888         
0                               0.3375000000000000222          1.1000000000000000888         
0                               0.35000000000000003331         1.1000000000000000888         
0                               0.36250000000000004441         1.1000000000000000888         
0                               0.375                          1.1000000000000000888         
0                               0.3875000000000000111          1.1000000000000000888         
0                               0.4000000000000000222          1.1000000000000000888         
0                               0.41250000000000003331         1.1000000000000000888         
0                               0.42500000000000004441         1.1000000000000000888         
0                               0.4375                         1.1000000000000000888         
0                               0.4500000000000000111          1.1000000000000000888         
0                               0.4625000000000000222          1.1000000000000000888         
0                               0.47500000000000003331         1.1000000000000000888         
0                               0.48750000000000004441         1.1000000000000000888         
0                               0.5                            1.1000000000000000888         
0                               0.51250000000000006661         1.1000000000000000888         
0                               0.5250000000000000222          1.1000000000000000888         
0                               0.5374999999999999778          1.1000000000000000888         
0                               0.55000000000000004441         1.1000000000000000888         
0                               0.5625                         1.1000000000000000888         
0                               0.57500000000000006661         1.1000000000000000888         
0                               0.5875000000000000222          1.1000000000000000888         
0                               0.60000000000000008882         1.1000000000000000888         
0                               0.61250000000000004441         1.1000000000000000888         
0                               0.625                          1.1000000000000000888         
0                               0.63750000000000006661         1.1000000000000000888         
0                               0.6500000000000000222          1.1000000000000000888         
0                               0.66250000000000008882         1.1000000000000000888         
0                               0.67500000000000004441         1.1000000000000000888         
0                               0.6875                         1.1000000000000000888         
0                               0.70000000000000006661         1.1000000000000000888         
0                               0.7125000000000000222          1.1000000000000000888         
0                               0.72500000000000008882         1.1000000000000000888         
0                               0.73750000000000004441         1.1000000000000000888         
0                               0.75                           1.1000000000000000888         
0                               0.76250000000000006661         1.1000000000000000888         
0                               0.7750000000000000222          1.1000000000000000888         
0                               0.78750000000000008882         1.1000000000000000888         
0                               0.80000000000000004441         1.1000000000000000888         
0                               0.8125                         1.1000000000000000888         
0                               0.82500000000000006661         1.1000000000000000888         
0                               0.8375000000000000222          1.1000000000000000888         
0                               0.85000000000000008882         1.1000000000000000888         
0                               0.86250000000000004441         1.1000000000000000888         
0                               0.875                          1.1000000000000000888         
0                               0.88750000000000006661         1.1000000000000000888         
0                               0.9000000000000000222          1.1000000000000000888         
0                               0.91250000000000008882         1.1000000000000000888         
0                               0.92500000000000004441         1.1000000000000000888         
0                               0.9375                         1.1000000000000000888         
0                               0.95000000000000006661         1.1000000000000000888         
0                               0.9625000000000000222          1.1000000000000000888         
0                               0.97500000000000008882         1.1000000000000000888         
0                               0.98750000000000004441         1.1000000000000000888         
0.012500000000000000694         0                              1.1000000000000000888         
0.012500000000000000694         0.012500000000000000694        1.1000766895953464353         
0.012500000000000000694         0.025000000000000001388        1.1001539192731133454         
0.012500000000000000694         0.037500000000000005551        1.1002314986844989875         
0.012500000000000000694         0.050000000000000002776        1.1003093338370295573         
0.012500000000000000694         0.0625                         1.1003873649754272179         
0.012500000000000000694         0.075000000000000011102        1.1004655485168310936         
0.012500000000000000694         0.087500000000000008327        1.1005438506290308176         
0.012500000000000000694         0.10000000000000000555         1.1006222444096740443         
0.012500000000000000694         0.11250000000000000278         1.1007007083399333869         
0.012500000000000000694         0.125                          1.1007792252515620213         
0.012500000000000000694         0.1375000000000000111          1.1008577815369475772         
0.012500000000000000694         0.1500000000000000222          1.1009363665013833788         
0.012500000000000000694         0.16250000000000000555         1.1010149718182418166         
0.012500000000000000694         0.17500000000000001665         1.1010935910693038231         
0.012500000000000000694         0.1875                         1.1011722193603887821         
0.012500000000000000694         0.2000000000000000111          1.10125085300372616           
0.012500000000000000694         0.2125000000000000222          1.1013294892585068219         
0.012500000000000000694         0.22500000000000000555         1.1014081261218739982         
0.012500000000000000694         0.23750000000000001665         1.1014867621619062188         
0.012500000000000000694         0.25                           1.101565396385673079          
0.012500000000000000694         0.2625000000000000111          1.1016440281354140662         
0.012500000000000000694         0.2750000000000000222          1.1017226570072347069         
0.012500000000000000694         0.28750000000000003331         1.1018012827884313687         
0.012500000000000000694         0.30000000000000004441         1.1018799054080641309         
0.012500000000000000694         0.3125                         1.1019585248994621107         
0.012500000000000000694         0.3250000000000000111          1.102037141370811435          
0.012500000000000000694         0.3375000000000000222          1.1021157549824889266         
0.012500000000000000694         0.35000000000000003331         1.1021943659299573426         
0.012500000000000000694         0.36250000000000004441         1.1022729744302230959         
0.012500000000000000694         0.375                          1.1023515807115646936         
0.012500000000000000694         0.3875000000000000111          1.1024301850056337226         
0.012500000000000000694         0.4000000000000000222          1.1025087875408883242         
0.012500000000000000694         0.41250000000000003331         1.1025873885378902894         
0.012500000000000000694         0.42500000000000004441         1.1026659882050589001         
0.012500000000000000694         0.4375                         1.1027445867351430842         
0.012500000000000000694         0.4500000000000000111          1.1028231843018123648         
0.012500000000000000694         0.4625000000000000222          1.1029017810563952473         
0.012500000000000000694         0.47500000000000003331         1.1029803771252939537         
0.012500000000000000694         0.48750000000000004441         1.1030589726049702115         
0.012500000000000000694         0.5                            1.1031375675593637631         
0.012500000000000000694         0.51250000000000006661         1.1032161620132610036         
0.012500000000000000694         0.5250000000000000222          1.103294755948417416          
0.012500000000000000694         0.5374999999999999778          1.1033733492947022103         
0.012500000000000000694         0.55000000000000004441         1.1034519419229285031         
0.012500000000000000694         0.5625                         1.1035305336339849003         
0.012500000000000000694         0.57500000000000006661         1.1036091241466996493         
0.012500000000000000694         0.5875000000000000222          1.1036877130828093296         
0.012500000000000000694         0.60000000000000008882         1.1037662999486086424         
0.012500000000000000694         0.61250000000000004441         1.1038448841130348299         
0.012500000000000000694         0.625                          1.1039234647812712353         
0.012500000000000000694         0.63750000000000006661         1.1040020409624646813         
0.012500000000000000694         0.6500000000000000222          1.1040806114314298814         
0.012500000000000000694         0.66250000000000008882         1.1041591746823165021         
0.012500000000000000694         0.67500000000000004441         1.104237728873071589          
0.012500000000000000694         0.6875                         1.1043162717599062095         
0.012500000000000000694         0.70000000000000006661         1.1043948006184645116         
0.012500000000000000694         0.7125000000000000222          1.1044733121516785435         
0.012500000000000000694         0.72500000000000008882         1.1045518023811855546         
0.012500000000000000694         0.73750000000000004441         1.1046302665211567007         
0.012500000000000000694         0.75                           1.1047086988336287661         
0.012500000000000000694         0.76250000000000006661         1.1047870924636906675         
0.012500000000000000694         0.7750000000000000222          1.1048654392563914683         
0.012500000000000000694         0.78750000000000008882         1.1049437295568278472         
0.012500000000000000694         0.80000000000000004441         1.105021951999208385          
0.012500000000000000694         0.8125                         1.1051000932951053901         
0.012500000000000000694         0.82500000000000006661         1.1051781380347502903         
0.012500000000000000694         0.8375000000000000222          1.1052560685262087237         
0.012500000000000000694         0.85000000000000008882         1.1053338647064987477         
0.012500000000000000694         0.86250000000000004441         1.1054115041736585212         
0.012500000000000000694         0.875                          1.1054889624108252821         
0.012500000000000000694         0.88750000000000006661         1.1055662132980257351         
0.012500000000000000694         0.9000000000000000222          1.1056432300476535247         
0.012500000000000000694         0.91250000000000008882         1.1057199867480489441         
0.012500000000000000694         0.92500000000000004441         1.1057964607757475584         
0.012500000000000000694         0.9375                         1.1058726364416924248         
0.012500000000000000694         0.95000000000000006661         1.1059485104117992016         
0.012500000000000000694         0.9625000000000000222          1.1060240997599573021         
0.012500000000000000694         0.97500000000000008882         1.1060994542207034375         
0.012500000000000000694         0.98750000000000004441         1.1061746762125943544         
0.025000000000000001388         0                              1.1000000000000000888         
0.025000000000000001388         0.012500000000000000694        1.100153894837480939          
0.025000000000000001388         0.025000000000000001388        1.1003085230789491078         
0.025000000000000001388         0.037500000000000005551        1.1004637219402391146         
0.025000000000000001388         0.050000000000000002776        1.1006193720896861876         
0.025000000000000001388         0.0625                         1.1007753834089994971         
0.025000000000000001388         0.075000000000000011102        1.100931684463280158          
0.025000000000000001388         0.087500000000000008327        1.101088217015737003          
0.025000000000000001388         0.10000000000000000555         1.1012449330987936769         
0.025000000000000001388         0.11250000000000000278         1.1014017932122095456         
0.025000000000000001388         0.125                          1.1015587650114515572         
0.025000000000000001388         0.1375000000000000111          1.1017158222270402312         
0.025000000000000001388         0.1500000000000000222          1.1018729437194836329         
0.025000000000000001388         0.16250000000000000555         1.102030112639422299          
0.025000000000000001388         0.17500000000000001665         1.1021873156858077447         
0.025000000000000001388         0.1875                         1.1023445424609823462         
0.025000000000000001388         0.2000000000000000111          1.1025017849190696939         
0.025000000000000001388         0.2125000000000000222          1.1026590369023530069         
0.025000000000000001388         0.22500000000000000555         1.1028162937573580127         
0.025000000000000001388         0.23750000000000001665         1.1029735520206915833         
0.025000000000000001388         0.25                           1.103130809164725834          
0.025000000000000001388         0.2625000000000000111          1.1032880633933375147         
0.025000000000000001388         0.2750000000000000222          1.1034453134785977557         
0.025000000000000001388         0.28750000000000003331         1.1036025586312916413         
0.025000000000000001388         0.30000000000000004441         1.1037597983976934479         
0.025000000000000001388         0.3125                         1.1039170325784564142         
0.025000000000000001388         0.3250000000000000111          1.1040742611640761428         
0.025000000000000001388         0.3375000000000000222          1.104231484284011966          
0.025000000000000001388         0.35000000000000003331         1.104388702166777092          
0.025000000000000001388         0.36250000000000004441         1.1045459151078058646         
0.025000000000000001388         0.375                          1.104703123444729318          
0.025000000000000001388         0.3875000000000000111          1.1048603275368873433         
0.025000000000000001388         0.4000000000000000222          1.1050175277491582904         
0.025000000000000001388         0.41250000000000003331         1.1051747244388874236         
0.025000000000000001388         0.42500000000000004441         1.1053319179443914511         
0.025000000000000001388         0.4375                         1.1054891085754774416         
0.025000000000000001388         0.4500000000000000111          1.1056462966041467055         
0.025000000000000001388         0.4625000000000000222          1.1058034822561360055         
0.025000000000000001388         0.47500000000000003331         1.1059606657018321574         
0.025000000000000001388         0.48750000000000004441         1.1061178470472337043         
0.025000000000000001388         0.5                            1.1062750263229923497         
0.025000000000000001388         0.51250000000000006661         1.1064322034729152655         
0.025000000000000001388         0.5250000000000000222          1.1065893783388647265         
0.025000000000000001388         0.5374999999999999778          1.1067465506462506042         
0.025000000000000001388         0.55000000000000004441         1.106903719982619716          
0.025000000000000001388         0.5625                         1.1070608857747561427         
0.025000000000000001388         0.57500000000000006661         1.1072180472610284596         
0.025000000000000001388         0.5875000000000000222          1.1073752034578407955         
0.025000000000000001388         0.60000000000000008882         1.1075323531193597137         
0.025000000000000001388         0.61250000000000004441         1.1076894946897783978         
0.025000000000000001388         0.625                          1.1078466262466970527         
0.025000000000000001388         0.63750000000000006661         1.1080037454326345792         
0.025000000000000001388         0.6500000000000000222          1.1081608493750896294         
0.025000000000000001388         0.66250000000000008882         1.1083179345907723246         
0.025000000000000001388         0.67500000000000004441         1.1084749968734386449         
0.025000000000000001388         0.6875                         1.1086320311623030221         
0.025000000000000001388         0.70000000000000006661         1.1087890313882031723         
0.025000000000000001388         0.7125000000000000222          1.1089459902961531501         
0.025000000000000001388         0.72500000000000008882         1.1091028992411773313         
0.025000000000000001388         0.73750000000000004441         1.109259747957062725          
0.025000000000000001388         0.75                           1.1094165242982612085         
0.025000000000000001388         0.76250000000000006661         1.1095732139559295604         
0.025000000000000001388         0.7750000000000000222          1.1097298001550657265         
0.025000000000000001388         0.78750000000000008882         1.1098862633407466927         
0.025000000000000001388         0.80000000000000004441         1.1100425808706355646         
0.025000000000000001388         0.8125                         1.1101987267385271529         
0.025000000000000001388         0.82500000000000006661         1.1103546713636374133         
0.025000000000000001388         0.8375000000000000222          1.1105103814985333166         
0.025000000000000001388         0.85000000000000008882         1.1106658203256956075         
0.025000000000000001388         0.86250000000000004441         1.1108209478397623737         
0.025000000000000001388         0.875                          1.1109757216459461571         
0.025000000000000001388         0.88750000000000006661         1.111130098347103301          
0.025000000000000001388         0.9000000000000000222          1.1112840357504043531         
0.025000000000000001388         0.91250000000000008882         1.1114374961983672918         
0.025000000000000001388         0.92500000000000004441         1.1115904514321286456         
0.025000000000000001388         0.9375                         1.1117428895353129725         
0.025000000000000001388         0.95000000000000006661         1.1118948247135929108         
0.025000000000000001388         0.9625000000000000222          1.1120463109831935089         
0.025000000000000001388         0.97500000000000008882         1.112197461363451545          
0.025000000000000001388         0.98750000000000004441         1.1123484749586376452         
0.037500000000000005551         0                              1.1000000000000000888         
0.037500000000000005551         0.012500000000000000694        1.1002313852264402616         
0.037500000000000005551         0.025000000000000001388        1.1004635876319133203         
0.037500000000000005551         0.037500000000000005551        1.1006964879616989439         
0.037500000000000005551         0.050000000000000002776        1.1009299752063805844         
0.037500000000000005551         0.0625                         1.1011639518958764583         
0.037500000000000005551         0.075000000000000011102        1.1013983335694790267         
0.037500000000000005551         0.087500000000000008327        1.1016330473848061633         
0.037500000000000005551         0.10000000000000000555         1.10186803090828489           
0.037500000000000005551         0.11250000000000000278         1.1021032310898906115         
0.037500000000000005551         0.125                          1.1023386033091462366         
0.037500000000000005551         0.1375000000000000111          1.1025741104350106347         
0.037500000000000005551         0.1500000000000000222          1.1028097218946764091         
0.037500000000000005551         0.16250000000000000555         1.1030454127704849565         
0.037500000000000005551         0.17500000000000001665         1.1032811629499665873         
0.037500000000000005551         0.1875                         1.1035169563496478595         
0.037500000000000005551         0.2000000000000000111          1.1037527802251090314         
0.037500000000000005551         0.2125000000000000222          1.1039886245717061009         
0.037500000000000005551         0.22500000000000000555         1.104224481614122455          
0.037500000000000005551         0.23750000000000001665         1.1044603453781671742         
0.037500000000000005551         0.25                           1.1046962113359986013         
0.037500000000000005551         0.2625000000000000111          1.1049320761149201697         
0.037500000000000005551         0.2750000000000000222          1.1051679372594753747         
0.037500000000000005551         0.28750000000000003331         1.1054037930388538324         
0.037500000000000005551         0.30000000000000004441         1.1056396422903345123         
0.037500000000000005551         0.3125                         1.1058754842931020068         
0.037500000000000005551         0.3250000000000000111          1.1061113186661948316         
0.037500000000000005551         0.3375000000000000222          1.1063471452858586463         
0.037500000000000005551         0.35000000000000003331         1.1065829642191840065         
0.037500000000000005551         0.36250000000000004441         1.1068187756697176471         
0.037500000000000005551         0.375                          1.107054579934039662          
0.037500000000000005551         0.3875000000000000111          1.1072903773654267923         
0.037500000000000005551         0.4000000000000000222          1.1075261683443557992         
0.037500000000000005551         0.41250000000000003331         1.1077619532538593994         
0.037500000000000005551         0.42500000000000004441         1.1079977324577350295         
0.037500000000000005551         0.4375                         1.1082335062820711791         
0.037500000000000005551         0.4500000000000000111          1.1084692749978521942         
0.037500000000000005551         0.4625000000000000222          1.1087050388037833493         
0.037500000000000005551         0.47500000000000003331         1.1089407978101912811         
0.037500000000000005551         0.48750000000000004441         1.1091765520207579332         
0.037500000000000005551         0.5                            1.1094123013142569434         
0.037500000000000005551         0.51250000000000006661         1.1096480454216071099         
0.037500000000000005551         0.5250000000000000222          1.1098837839024475738         
0.037500000000000005551         0.5374999999999999778          1.1101195161166996783         
0.037500000000000005551         0.55000000000000004441         1.1103552411904906716         
0.037500000000000005551         0.5625                         1.1105909579775739005         
0.037500000000000005551         0.57500000000000006661         1.1108266650127753827         
0.037500000000000005551         0.5875000000000000222          1.1110623604576643775         
0.037500000000000005551         0.60000000000000008882         1.1112980420359099831         
0.037500000000000005551         0.61250000000000004441         1.1115337069573694162         
0.037500000000000005551         0.625                          1.1117693518287017351         
0.037500000000000005551         0.63750000000000006661         1.1120049725482437086         
0.037500000000000005551         0.6500000000000000222          1.1122405641833796874         
0.037500000000000005551         0.66250000000000008882         1.1124761208272635482         
0.037500000000000005551         0.67500000000000004441         1.1127116354329129599         
0.037500000000000005551         0.6875                         1.1129470996224775092         
0.037500000000000005551         0.70000000000000006661         1.1131825034684668108         
0.037500000000000005551         0.7125000000000000222          1.1134178352467667406         
0.037500000000000005551         0.72500000000000008882         1.1136530811598197577         
0.037500000000000005551         0.73750000000000004441         1.1138882250314543487         
0.037500000000000005551         0.75                           1.1141232479779885622         
0.037500000000000005551         0.76250000000000006661         1.1143581280610119766         
0.037500000000000005551         0.7750000000000000222          1.1145928399366971107         
0.037500000000000005551         0.78750000000000008882         1.1148273545192433076         
0.037500000000000005551         0.80000000000000004441         1.1150616386888463349         
0.037500000000000005551         0.8125                         1.1152956550849313366         
0.037500000000000005551         0.82500000000000006661         1.1155293620411521616         
0.037500000000000005551         0.8375000000000000222          1.1157627137393382188         
0.037500000000000005551         0.85000000000000008882         1.1159956606829477543         
0.037500000000000005551         0.86250000000000004441         1.1162281506226063854         
0.037500000000000005551         0.875                          1.1164601301030481206         
0.037500000000000005551         0.88750000000000006661         1.1166915468490365981         
0.037500000000000005551         0.9000000000000000222          1.1169223532684200428         
0.037500000000000005551         0.91250000000000008882         1.117152511424781558          
0.037500000000000005551         0.92500000000000004441         1.1173819999301271011         
0.037500000000000005551         0.9375                         1.117610823328774039          
0.037500000000000005551         0.95000000000000006661         1.1178390246899507776         