TITLE = 'DEM DATA | DEM DATA | DEM DATA | DEM DATA'
VARIABLES = 'X' 'Y' 'E' 
ZONE T='SubZone'
I=80 J=80 K=1 ZONETYPE=Ordered
DATAPACKING=POINT
DT=(SINGLE SINGLE SINGLE )
0                               0                              1.1000000000000000888         
0                               0.012500000000000000694        1.1000000000000000888         
0                               0.025000000000000001388        1.1000000000000000888         
0                               0.037500000000000005551        1.1000000000000000888         
0                               0.050000000000000002776        1.1000000000000000888         
0                               0.0625                         1.1000000000000000888         
0                               0.075000000000000011102        1.1000000000000000888         
0                               0.087500000000000008327        1.1000000000000000888         
0                               0.10000000000000000555         1.1000000000000000888         
0                               0.11250000000000000278         1.1000000000000000888         
0                               0.125                          1.1000000000000000888         
0                               0.1375000000000000111          1.1000000000000000888         
0                               0.1500000000000000222          1.1000000000000000888         
0                               0.16250000000000000555         1.1000000000000000888         
0                               0.17500000000000001665         1.1000000000000000888         
0                               0.1875                         1.1000000000000000888         
0                               0.2000000000000000111          1.1000000000000000888         
0                               0.2125000000000000222          1.1000000000000000888         
0                               0.22500000000000000555         1.1000000000000000888         
0                               0.23750000000000001665         1.1000000000000000888         
0                               0.25                           1.1000000000000000888         
0                               0.2625000000000000111          1.1000000000000000888         
0                               0.2750000000000000222          1.1000000000000000888         
0                               0.28750000000000003331         1.1000000000000000888         
0                               0.30000000000000004441         1.1000000000000000888         
0                               0.3125                         1.1000000000000000888         
0                               0.3250000000000000111          1.1000000000000000888         
0                               0.3375000000000000222          1.1000000000000000888         
0                               0.35000000000000003331         1.1000000000000000888         
0                               0.36250000000000004441         1.1000000000000000888         
0                               0.375                          1.1000000000000000888         
0                               0.3875000000000000111          1.1000000000000000888         
0                               0.4000000000000000222          1.1000000000000000888         
0                               0.41250000000000003331         1.1000000000000000888         
0                               0.42500000000000004441         1.1000000000000000888         
0                               0.4375                         1.1000000000000000888         
0                               0.4500000000000000111          1.1000000000000000888         
0                               0.4625000000000000222          1.1000000000000000888         
0                               0.47500000000000003331         1.1000000000000000888         
0                               0.48750000000000004441         1.1000000000000000888         
0                               0.5                            1.1000000000000000888         
0                               0.51250000000000006661         1.1000000000000000888         
0                               0.5250000000000000222          1.1000000000000000888         
0                               0.5374999999999999778          1.1000000000000000888         
0                               0.55000000000000004441         1.1000000000000000888         
0                               0.5625                         1.1000000000000000888         
0                               0.57500000000000006661         1.1000000000000000888         
0                               0.5875000000000000222          1.1000000000000000888         
0                               0.60000000000000008882         1.1000000000000000888         
0                               0.61250000000000004441         1.1000000000000000888         
0                               0.625                          1.1000000000000000888         
0                               0.63750000000000006661         1.1000000000000000888         
0                               0.6500000000000000222          1.1000000000000000888         
0                               0.66250000000000008882         1.1000000000000000888         
0                               0.67500000000000004441         1.1000000000000000888         
0                               0.6875                         1.1000000000000000888         
0                               0.70000000000000006661         1.1000000000000000888         
0                               0.7125000000000000222          1.1000000000000000888         
0                               0.72500000000000008882         1.1000000000000000888         
0                               0.73750000000000004441         1.1000000000000000888         
0                               0.75                           1.1000000000000000888         
0                               0.76250000000000006661         1.1000000000000000888         
0                               0.7750000000000000222          1.1000000000000000888         
0                               0.78750000000000008882         1.1000000000000000888         
0                               0.80000000000000004441         1.1000000000000000888         
0                               0.8125                         1.1000000000000000888         
0                               0.82500000000000006661         1.1000000000000000888         
0                               0.8375000000000000222          1.1000000000000000888         
0                               0.85000000000000008882         1.1000000000000000888         
0                               0.86250000000000004441         1.1000000000000000888         
0                               0.875                          1.1000000000000000888         
0                               0.88750000000000006661         1.1000000000000000888         
0                               0.9000000000000000222          1.1000000000000000888         
0                               0.91250000000000008882         1.1000000000000000888         
0                               0.92500000000000004441         1.1000000000000000888         
0                               0.9375                         1.1000000000000000888         
0                               0.95000000000000006661         1.1000000000000000888         
0                               0.9625000000000000222          1.1000000000000000888         
0                               0.97500000000000008882         1.1000000000000000888         
0                               0.98750000000000004441         1.1000000000000000888         
0.012500000000000000694         0                              1.1000000000000000888         
0.012500000000000000694         0.012500000000000000694        1.1000378733858011682         
0.012500000000000000694         0.025000000000000001388        1.1000762302974811391         
0.012500000000000000694         0.037500000000000005551        1.1001148899457278141         
0.012500000000000000694         0.050000000000000002776        1.1001537630727158401         
0.012500000000000000694         0.0625                         1.1001927944435232476         
0.012500000000000000694         0.075000000000000011102        1.1002319456502887007         
0.012500000000000000694         0.087500000000000008327        1.1002711885715394935         
0.012500000000000000694         0.10000000000000000555         1.1003105021752332959         
0.012500000000000000694         0.11250000000000000278         1.1003498705832952531         
0.012500000000000000694         0.125                          1.1003892817305045426         
0.012500000000000000694         0.1375000000000000111          1.100428726377831623          
0.012500000000000000694         0.1500000000000000222          1.1004681973773109416         
0.012500000000000000694         0.16250000000000000555         1.1005076891292868702         
0.012500000000000000694         0.17500000000000001665         1.1005471971883518112         
0.012500000000000000694         0.1875                         1.1005867179812565126         
0.012500000000000000694         0.2000000000000000111          1.1006262486066022976         
0.012500000000000000694         0.2125000000000000222          1.1006657866915183774         
0.012500000000000000694         0.22500000000000000555         1.1007053302879401535         
0.012500000000000000694         0.23750000000000001665         1.1007448777947128615         
0.012500000000000000694         0.25                           1.1007844278975724706         
0.012500000000000000694         0.2625000000000000111          1.1008239795210714718         
0.012500000000000000694         0.2750000000000000222          1.1008635317887471849         
0.012500000000000000694         0.28750000000000003331         1.1009030839900746379         
0.012500000000000000694         0.30000000000000004441         1.1009426355518650009         
0.012500000000000000694         0.3125                         1.1009821860141326688         
0.012500000000000000694         0.3250000000000000111          1.1010217350089610555         
0.012500000000000000694         0.3375000000000000222          1.1010612822425509538         
0.012500000000000000694         0.35000000000000003331         1.101100827479651878          
0.012500000000000000694         0.36250000000000004441         1.1011403705298348221         
0.012500000000000000694         0.375                          1.1011799112360092234         
0.012500000000000000694         0.3875000000000000111          1.1012194494637079778         
0.012500000000000000694         0.4000000000000000222          1.1012589850923140133         
0.012500000000000000694         0.41250000000000003331         1.1012985180067209612         
0.012500000000000000694         0.42500000000000004441         1.1013380480898193881         
0.012500000000000000694         0.4375                         1.1013775752157335397         
0.012500000000000000694         0.4500000000000000111          1.1014170992431009388         
0.012500000000000000694         0.4625000000000000222          1.1014566200084854319         
0.012500000000000000694         0.47500000000000003331         1.1014961373203400186         
0.012500000000000000694         0.48750000000000004441         1.101535650951742662          
0.012500000000000000694         0.5                            1.1015751606343830993         
0.012500000000000000694         0.51250000000000006661         1.1016146660497185827         
0.012500000000000000694         0.5250000000000000222          1.1016541668218358119         
0.012500000000000000694         0.5374999999999999778          1.101693662508145044          
0.012500000000000000694         0.55000000000000004441         1.1017331525893130362         
0.012500000000000000694         0.5625                         1.1017726364573940945         
0.012500000000000000694         0.57500000000000006661         1.1018121134039036146         
0.012500000000000000694         0.5875000000000000222          1.1018515826044592565         
0.012500000000000000694         0.60000000000000008882         1.1018910431026716079         
0.012500000000000000694         0.61250000000000004441         1.1019304937910154862         
0.012500000000000000694         0.625                          1.1019699333896093574         
0.012500000000000000694         0.63750000000000006661         1.1020093604214695748         
0.012500000000000000694         0.6500000000000000222          1.1020487731850137081         
0.012500000000000000694         0.66250000000000008882         1.1020881697221975859         
0.012500000000000000694         0.67500000000000004441         1.10212754778279165           
0.012500000000000000694         0.6875                         1.1021669047838107414         
0.012500000000000000694         0.70000000000000006661         1.1022062377637238395         
0.012500000000000000694         0.7125000000000000222          1.1022455433311404427         
0.012500000000000000694         0.72500000000000008882         1.1022848176067854276         
0.012500000000000000694         0.73750000000000004441         1.1023240561592180242         
0.012500000000000000694         0.75                           1.1023632539335015412         
0.012500000000000000694         0.76250000000000006661         1.102402405172433042          
0.012500000000000000694         0.7750000000000000222          1.1024415033311285583         
0.012500000000000000694         0.78750000000000008882         1.1024805409858029481         
0.012500000000000000694         0.80000000000000004441         1.1025195097388125198         
0.012500000000000000694         0.8125                         1.1025584001256218958         
0.012500000000000000694         0.82500000000000006661         1.1025972015307348162         
0.012500000000000000694         0.8375000000000000222          1.1026359021276801453         
0.012500000000000000694         0.85000000000000008882         1.1026744888642474596         
0.012500000000000000694         0.86250000000000004441         1.1027129475267560821         
0.012500000000000000694         0.875                          1.1027512629322044901         
0.012500000000000000694         0.88750000000000006661         1.1027894193144669455         
0.012500000000000000694         0.9000000000000000222          1.102827400999303098          
0.012500000000000000694         0.91250000000000008882         1.1028651934929456502         
0.012500000000000000694         0.92500000000000004441         1.1029027851679733541         
0.012500000000000000694         0.9375                         1.1029401698281355859         
0.012500000000000000694         0.95000000000000006661         1.1029773506529230165         
0.012500000000000000694         0.9625000000000000222          1.1030143465494275379         
0.012500000000000000694         0.97500000000000008882         1.1030512033850883302         
0.012500000000000000694         0.98750000000000004441         1.1030880172433799036         
0.025000000000000001388         0                              1.1000000000000000888         
0.025000000000000001388         0.012500000000000000694        1.1000762143330071741         
0.025000000000000001388         0.025000000000000001388        1.1001530813988846802         
0.025000000000000001388         0.037500000000000005551        1.1002304386401473568         
0.025000000000000001388         0.050000000000000002776        1.1003081691605385295         
0.025000000000000001388         0.0625                         1.1003861879431440229         
0.025000000000000001388         0.075000000000000011102        1.1004644312280769114         
0.025000000000000001388         0.087500000000000008327        1.1005428503627110448         
0.025000000000000001388         0.10000000000000000555         1.1006214079769891523         
0.025000000000000001388         0.11250000000000000278         1.1007000752969320345         
0.025000000000000001388         0.125                          1.1007788300994421071         
0.025000000000000001388         0.1375000000000000111          1.1008576551126927345         
0.025000000000000001388         0.1500000000000000222          1.1009365367747869779         
0.025000000000000001388         0.16250000000000000555         1.101015464292609991          
0.025000000000000001388         0.17500000000000001665         1.1010944289473325597         
0.025000000000000001388         0.1875                         1.101173423594204559          
0.025000000000000001388         0.2000000000000000111          1.1012524423073584146         
0.025000000000000001388         0.2125000000000000222          1.101331480128257656          
0.025000000000000001388         0.22500000000000000555         1.1014105328849226328         
0.025000000000000001388         0.23750000000000001665         1.1014895970582576634         
0.025000000000000001388         0.25                           1.1015686696790156773         
0.025000000000000001388         0.2625000000000000111          1.1016477482449902325         
0.025000000000000001388         0.2750000000000000222          1.1017268306519016896         
0.025000000000000001388         0.28750000000000003331         1.1018059151344501423         
0.025000000000000001388         0.30000000000000004441         1.1018850002144007227         
0.025000000000000001388         0.3125                         1.1019640846555076585         
0.025000000000000001388         0.3250000000000000111          1.1020431674232602504         
0.025000000000000001388         0.3375000000000000222          1.1021222476493046649         
0.025000000000000001388         0.35000000000000003331         1.1022013246001252096         
0.025000000000000001388         0.36250000000000004441         1.1022803976488355637         
0.025000000000000001388         0.375                          1.1023594662504339059         
0.025000000000000001388         0.3875000000000000111          1.1024385299193233401         
0.025000000000000001388         0.4000000000000000222          1.102517588209028121          
0.025000000000000001388         0.41250000000000003331         1.1025966406941400955         
0.025000000000000001388         0.42500000000000004441         1.1026756869529354965         
0.025000000000000001388         0.4375                         1.102754726551608444          
0.025000000000000001388         0.4500000000000000111          1.1028337590289603032         
0.025000000000000001388         0.4625000000000000222          1.1029127838813530538         
0.025000000000000001388         0.47500000000000003331         1.1029918005482495236         
0.025000000000000001388         0.48750000000000004441         1.1030708083963332022         
0.025000000000000001388         0.5                            1.1031498067047473821         
0.025000000000000001388         0.51250000000000006661         1.1032287946474783613         
0.025000000000000001388         0.5250000000000000222          1.1033077712764647327         
0.025000000000000001388         0.5374999999999999778          1.1033867355013100564         
0.025000000000000001388         0.55000000000000004441         1.1034656860690690294         
0.025000000000000001388         0.5625                         1.1035446215397801684         
0.025000000000000001388         0.57500000000000006661         1.1036235402613325807         
0.025000000000000001388         0.5875000000000000222          1.1037024403397170946         
0.025000000000000001388         0.60000000000000008882         1.1037813196070145327         
0.025000000000000001388         0.61250000000000004441         1.1038601755849053454         
0.025000000000000001388         0.625                          1.1039390054442834721         
0.025000000000000001388         0.63750000000000006661         1.1040178059596597038         
0.025000000000000001388         0.6500000000000000222          1.104096573458834829          
0.025000000000000001388         0.66250000000000008882         1.1041753037664172599         
0.025000000000000001388         0.67500000000000004441         1.1042539921411855808         
0.025000000000000001388         0.6875                         1.1043326332070846352         
0.025000000000000001388         0.70000000000000006661         1.1044112208766698746         
0.025000000000000001388         0.7125000000000000222          1.1044897482677233924         
0.025000000000000001388         0.72500000000000008882         1.1045682076115896919         
0.025000000000000001388         0.73750000000000004441         1.1046465901544273436         
0.025000000000000001388         0.75                           1.1047248860513334545         
0.025000000000000001388         0.76250000000000006661         1.1048030842538931751         
0.025000000000000001388         0.7750000000000000222          1.1048811723940743512         
0.025000000000000001388         0.78750000000000008882         1.1049591366671562831         
0.025000000000000001388         0.80000000000000004441         1.1050369617213942064         
0.025000000000000001388         0.8125                         1.1051146305652121971         
0.025000000000000001388         0.82500000000000006661         1.1051921245106977043         
0.025000000000000001388         0.8375000000000000222          1.1052694231830852978         
0.025000000000000001388         0.85000000000000008882         1.1053465046406669714         
0.025000000000000001388         0.86250000000000004441         1.1054233456697899474         
0.025000000000000001388         0.875                          1.1054999223452683932         
0.025000000000000001388         0.88750000000000006661         1.1055762109744839972         
0.025000000000000001388         0.9000000000000000222          1.1056521895807276401         
0.025000000000000001388         0.91250000000000008882         1.1057278401242474075         
0.025000000000000001388         0.92500000000000004441         1.105803151725504474          
0.025000000000000001388         0.9375                         1.1058781252734570799         
0.025000000000000001388         0.95000000000000006661         1.1059527800364175043         
0.025000000000000001388         0.9625000000000000222          1.1060271633866296526         
0.025000000000000001388         0.97500000000000008882         1.1061013657367715357         
0.025000000000000001388         0.98750000000000004441         1.1061755443905094687         
0.037500000000000005551         0                              1.1000000000000000888         
0.037500000000000005551         0.012500000000000000694        1.1001148113142857898         
0.037500000000000005551         0.025000000000000001388        1.1002303458580084961         
0.037500000000000005551         0.037500000000000005551        1.100346474304644051          
0.037500000000000005551         0.050000000000000002776        1.1004630824384176169         
0.037500000000000005551         0.0625                         1.1005800755739389984         
0.037500000000000005551         0.075000000000000011102        1.100697377076550687          
0.037500000000000005551         0.087500000000000008327        1.1008149257183588166         
0.037500000000000005551         0.10000000000000000555         1.1009326730410711193         
0.037500000000000005551         0.11250000000000000278         1.1010505809315425108         
0.037500000000000005551         0.125                          1.1011686194633341085         
0.037500000000000005551         0.1375000000000000111          1.1012867650448565637         
0.037500000000000005551         0.1500000000000000222          1.1014049988985514794         
0.037500000000000005551         0.16250000000000000555         1.1015233058668354449         
0.037500000000000005551         0.17500000000000001665         1.1016416735127811943         
0.037500000000000005551         0.1875                         1.1017600914665439671         
0.037500000000000005551         0.2000000000000000111          1.1018785509619388741         
0.037500000000000005551         0.2125000000000000222          1.1019970445114897206         
0.037500000000000005551         0.22500000000000000555         1.1021155656768835129         
0.037500000000000005551         0.23750000000000001665         1.1022341089020457616         
0.037500000000000005551         0.25                           1.1023526693864122983         
0.037500000000000005551         0.2625000000000000111          1.1024712429833285476         
0.037500000000000005551         0.2750000000000000222          1.1025898261145172796         
0.037500000000000005551         0.28750000000000003331         1.1027084156958968375         
0.037500000000000005551         0.30000000000000004441         1.102827009070726394          
0.037500000000000005551         0.3125                         1.1029456039500267206         
0.037500000000000005551         0.3250000000000000111          1.1030641983576794374         
0.037500000000000005551         0.3375000000000000222          1.1031827905809497015         
0.037500000000000005551         0.35000000000000003331         1.1033013791254955294         
0.037500000000000005551         0.36250000000000004441         1.1034199626738043776         
0.037500000000000005551         0.375                          1.1035385400481019236         
0.037500000000000005551         0.3875000000000000111          1.1036571101755672242         
0.037500000000000005551         0.4000000000000000222          1.1037756720566236357         
0.037500000000000005551         0.41250000000000003331         1.1038942247359151416         
0.037500000000000005551         0.42500000000000004441         1.1040127672742807707         
0.037500000000000005551         0.4375                         1.1041312987227771547         
0.037500000000000005551         0.4500000000000000111          1.104249818097598812          
0.037500000000000005551         0.4625000000000000222          1.1043683243552662177         
0.037500000000000005551         0.47500000000000003331         1.1044868163680179318         
0.037500000000000005551         0.48750000000000004441         1.1046052928995011566         
0.037500000000000005551         0.5                            1.1047237525789317392         
0.037500000000000005551         0.51250000000000006661         1.1048421938744017456         
0.037500000000000005551         0.5250000000000000222          1.1049606150660673531         
0.037500000000000005551         0.5374999999999999778          1.1050790142140647365         
0.037500000000000005551         0.55000000000000004441         1.1051973891281734463         
0.037500000000000005551         0.5625                         1.105315737332010162          
0.037500000000000005551         0.57500000000000006661         1.1054340560251143533         
0.037500000000000005551         0.5875000000000000222          1.1055523420412758373         
0.037500000000000005551         0.60000000000000008882         1.1056705918024789526         
0.037500000000000005551         0.61250000000000004441         1.1057888012691723389         
0.037500000000000005551         0.625                          1.1059069658852580531         
0.037500000000000005551         0.63750000000000006661         1.106025080517755832          
0.037500000000000005551         0.6500000000000000222          1.1061431393915179822         
0.037500000000000005551         0.66250000000000008882         1.1062611360175633735         
0.037500000000000005551         0.67500000000000004441         1.1063790631157324196         
0.037500000000000005551         0.6875                         1.1064969125316213017         
0.037500000000000005551         0.70000000000000006661         1.1066146751467045295         
0.037500000000000005551         0.7125000000000000222          1.1067323407838434157         
0.037500000000000005551         0.72500000000000008882         1.1068498981067198539         
0.037500000000000005551         0.73750000000000004441         1.106967334515624124          
0.037500000000000005551         0.75                           1.1070846360408210796         
0.037500000000000005551         0.76250000000000006661         1.1072017872353518975         
0.037500000000000005551         0.7750000000000000222          1.1073187710727274702         
0.037500000000000005551         0.78750000000000008882         1.1074355688546004828         
0.037500000000000005551         0.80000000000000004441         1.1075521601412754436         
0.037500000000000005551         0.8125                         1.107668522721964921          
0.037500000000000005551         0.82500000000000006661         1.1077846326529359189         
0.037500000000000005551         0.8375000000000000222          1.1079004644079781805         
0.037500000000000005551         0.85000000000000008882         1.1080159912026970037         
0.037500000000000005551         0.86250000000000004441         1.1081311855825475288         
0.037500000000000005551         0.875                          1.1082460203914450414         
0.037500000000000005551         0.88750000000000006661         1.1083604702690461608         
0.037500000000000005551         0.9000000000000000222          1.1084745138565370581         
0.037500000000000005551         0.91250000000000008882         1.1085881369202985613         
0.037500000000000005551         0.92500000000000004441         1.1087013366436326844         
0.037500000000000005551         0.9375                         1.1088141273998279868         
0.037500000000000005551         0.95000000000000006661         1.1089265484400392392         