TITLE = 'DEM DATA | DEM DATA | DEM DATA | DEM DATA'
VARIABLES = 'X' 'Y' 'E' 
ZONE T='SubZone'
I=20 J=20 K=1 ZONETYPE=Ordered
DATAPACKING=POINT
DT=(SINGLE SINGLE SINGLE )
0                               0                              1.1000000000000000888         
0                               0.050000000000000002776        1.1000000000000000888         
0                               0.10000000000000000555         1.1000000000000000888         
0                               0.1500000000000000222          1.1000000000000000888         
0                               0.2000000000000000111          1.1000000000000000888         
0                               0.25                           1.1000000000000000888         
0                               0.30000000000000004441         1.1000000000000000888         
0                               0.35000000000000003331         1.1000000000000000888         
0                               0.4000000000000000222          1.1000000000000000888         
0                               0.4500000000000000111          1.1000000000000000888         
0                               0.5                            1.1000000000000000888         
0                               0.55000000000000004441         1.1000000000000000888         
0                               0.60000000000000008882         1.1000000000000000888         
0                               0.6500000000000000222          1.1000000000000000888         
0                               0.70000000000000006661         1.1000000000000000888         
0                               0.75                           1.1000000000000000888         
0                               0.80000000000000004441         1.1000000000000000888         
0                               0.85000000000000008882         1.1000000000000000888         
0                               0.9000000000000000222          1.1000000000000000888         
0                               0.95000000000000006661         1.1000000000000000888         
0.050000000000000002776         0                              1.1000000000000000888         
0.050000000000000002776         0.050000000000000002776        1.1018205647914085521         
0.050000000000000002776         0.10000000000000000555         1.1036781320177235788         
0.050000000000000002776         0.1500000000000000222          1.1055570549445292716         
0.050000000000000002776         0.2000000000000000111          1.1074484470350225429         
0.050000000000000002776         0.25                           1.1093467285888869434         
0.050000000000000002776         0.30000000000000004441         1.1112483688950163252         
0.050000000000000002776         0.35000000000000003331         1.113151172277539569          
0.050000000000000002776         0.4000000000000000222          1.1150537741160979621         
0.050000000000000002776         0.4500000000000000111          1.1169552654480612297         
0.050000000000000002776         0.5                            1.1188549089468253772         
0.050000000000000002776         0.55000000000000004441         1.1207519166045436521         
0.050000000000000002776         0.60000000000000008882         1.1226452664970065776         
0.050000000000000002776         0.6500000000000000222          1.1245335509943608088         
0.050000000000000002776         0.70000000000000006661         1.1264148770627435692         
0.050000000000000002776         0.75                           1.1282868892598458821         
0.050000000000000002776         0.80000000000000004441         1.1301470688527301967         
0.050000000000000002776         0.85000000000000008882         1.1319935849057816135         
0.050000000000000002776         0.9000000000000000222          1.1338271133527522139         
0.050000000000000002776         0.95000000000000006661         1.1356540755988320246         
0.10000000000000000555          0                              1.1000000000000000888         
0.10000000000000000555          0.050000000000000002776        1.1036688399010941009         
0.10000000000000000555          0.10000000000000000555         1.1073860750689783483         
0.10000000000000000555          0.1500000000000000222          1.1111375643624026299         
0.10000000000000000555          0.2000000000000000111          1.1149116634840940954         
0.10000000000000000555          0.25                           1.1186995500914804769         
0.10000000000000000555          0.30000000000000004441         1.1224948551368600924         
0.10000000000000000555          0.35000000000000003331         1.1262931295947413712         
0.10000000000000000555          0.4000000000000000222          1.1300912765268229521         
0.10000000000000000555          0.4500000000000000111          1.1338870185552460956         
0.10000000000000000555          0.5                            1.1376784337863856678         
0.10000000000000000555          0.55000000000000004441         1.1414635674063846604         
0.10000000000000000555          0.60000000000000008882         1.1452401206370190767         
0.10000000000000000555          0.6500000000000000222          1.1490052383160100913         
0.10000000000000000555          0.70000000000000006661         1.1527554655079592649         
0.10000000000000000555          0.75                           1.1564870287186217457         
0.10000000000000000555          0.80000000000000004441         1.1601967232203851399         
0.10000000000000000555          0.85000000000000008882         1.1638838444307657571         
0.10000000000000000555          0.9000000000000000222          1.1675537336671930611         
0.10000000000000000555          0.95000000000000006661         1.1712234664513130333         
0.1500000000000000222           0                              1.1000000000000000888         
0.1500000000000000222           0.050000000000000002776        1.1055303414183819122         
0.1500000000000000222           0.10000000000000000555         1.1111123462770520209         
0.1500000000000000222           0.1500000000000000222          1.1167347592490579622         
0.1500000000000000222           0.2000000000000000111          1.1223861680779720906         
0.1500000000000000222           0.25                           1.1280565239865352201         
0.1500000000000000222           0.30000000000000004441         1.1337376658709463761         
0.1500000000000000222           0.35000000000000003331         1.1394232681697367138         
0.1500000000000000222           0.4000000000000000222          1.1451084821226682475         
0.1500000000000000222           0.4500000000000000111          1.1507894477820470591         
0.1500000000000000222           0.5                            1.1564627894596097857         
0.1500000000000000222           0.55000000000000004441         1.162125163213440171          
0.1500000000000000222           0.60000000000000008882         1.16777290879058393           
0.1500000000000000222           0.6500000000000000222          1.1734018764187894579         
0.1500000000000000222           0.70000000000000006661         1.1790075546212097635         
0.1500000000000000222           0.75                           1.1845857201905318767         
0.1500000000000000222           0.80000000000000004441         1.1901339609529850705         
0.1500000000000000222           0.85000000000000008882         1.1956545643570648529         
0.1500000000000000222           0.9000000000000000222          1.2011593606746353569         
0.1500000000000000222           0.95000000000000006661         1.2066770274547833353         
0.2000000000000000111           0                              1.1000000000000000888         
0.2000000000000000111           0.050000000000000002776        1.1073990618107469874         
0.2000000000000000111           0.10000000000000000555         1.1148497846092066954         
0.2000000000000000111           0.1500000000000000222          1.1223429507247955073         
0.2000000000000000111           0.2000000000000000111          1.1298680900047675113         
0.2000000000000000111           0.25                           1.137414963476879981          
0.2000000000000000111           0.30000000000000004441         1.1449744287819847433         
0.2000000000000000111           0.35000000000000003331         1.1525387475572279605         
0.2000000000000000111           0.4000000000000000222          1.1601014879406987834         
0.2000000000000000111           0.4500000000000000111          1.1676571876132599836         
0.2000000000000000111           0.5                            1.1752009204808453458         
0.2000000000000000111           0.55000000000000004441         1.1827278817969189006         
0.2000000000000000111           0.60000000000000008882         1.1902330939320580061         
0.2000000000000000111           0.6500000000000000222          1.1977113518771618228         
0.2000000000000000111           0.70000000000000006661         1.2051575801075684602         
0.2000000000000000111           0.75                           1.2125678608197050234         
0.2000000000000000111           0.80000000000000004441         1.219941511688700464          
0.2000000000000000111           0.85000000000000008882         1.2272847220392586465         
0.2000000000000000111           0.9000000000000000222          1.2346163583307938616         
0.2000000000000000111           0.95000000000000006661         1.241976527884385062          
0.25                            0                              1.1000000000000000888         
0.25                            0.050000000000000002776        1.1092719658198557653         
0.25                            0.10000000000000000555         1.1185939454564677309         
0.25                            0.1500000000000000222          1.1279578170963624473         
0.25                            0.2000000000000000111          1.1373538927409869714         
0.25                            0.25                           1.1467720556121485664         
0.25                            0.30000000000000004441         1.1562026171534955932         
0.25                            0.35000000000000003331         1.1656367829252647361         
0.25                            0.4000000000000000222          1.1750667516981101457         
0.25                            0.4500000000000000111          1.1844855492575343536         
0.25                            0.5                            1.1938867266105188669         
0.25                            0.55000000000000004441         1.2032640549977888789         
0.25                            0.60000000000000008882         1.2126113520050683103         
0.25                            0.6500000000000000222          1.2219225925396879351         
0.25                            0.70000000000000006661         1.2311925059108448366         
0.25                            0.75                           1.2404179402397328413         
0.25                            0.80000000000000004441         1.2496003894812970358         
0.25                            0.85000000000000008882         1.2587502241948549386         
0.25                            0.9000000000000000222          1.2678933263638734186         
0.25                            0.95000000000000006661         1.2770809289318363344         
0.30000000000000004441          0                              1.1000000000000000888         
0.30000000000000004441          0.050000000000000002776        1.1111472879136312653         
0.30000000000000004441          0.10000000000000000555         1.1223419453206704421         
0.30000000000000004441          0.1500000000000000222          1.1335761699372677302         
0.30000000000000004441          0.2000000000000000111          1.1448406224256022501         
0.30000000000000004441          0.25                           1.1561252211330153017         
0.30000000000000004441          0.30000000000000004441         1.1674198530698731702         
0.30000000000000004441          0.35000000000000003331         1.178714856296675606          
0.30000000000000004441          0.4000000000000000222          1.1900012281765541822         
0.30000000000000004441          0.4500000000000000111          1.201270602248410535          
0.30000000000000004441          0.5                            1.2125150924843479672         
0.30000000000000004441          0.55000000000000004441         1.2237271324538487871         
0.30000000000000004441          0.60000000000000008882         1.2348994551823408994         
0.30000000000000004441          0.6500000000000000222          1.2460253848519651232         
0.30000000000000004441          0.70000000000000006661         1.2570996580766706785         
0.30000000000000004441          0.75                           1.2681200724208425701         
0.30000000000000004441          0.80000000000000004441         1.2790903868829432977         
0.30000000000000004441          0.85000000000000008882         1.2900250872938285873         
0.30000000000000004441          0.9000000000000000222          1.3009568758194014482         
0.30000000000000004441          0.95000000000000006661         1.3119479787825740758         
0.35000000000000003331          0                              1.1000000000000000888         
0.35000000000000003331          0.050000000000000002776        1.1130238994956627163         
0.35000000000000003331          0.10000000000000000555         1.1260918267763717626         
0.35000000000000003331          0.1500000000000000222          1.1391956621384098369         
0.35000000000000003331          0.2000000000000000111          1.1523259147484870013         
0.35000000000000003331          0.25                           1.1654722531876828828         
0.35000000000000003331          0.30000000000000004441         1.1786240461277677216         
0.35000000000000003331          0.35000000000000003331         1.1917707901843086482         
0.35000000000000003331          0.4000000000000000222          1.2049023588937410878         
0.35000000000000003331          0.4500000000000000111          1.2180090803497722884         
0.35000000000000003331          0.5                            1.2310817128071329662         
0.35000000000000003331          0.55000000000000004441         1.2441114300244755508         
0.35000000000000003331          0.60000000000000008882         1.2570899587120041296         
0.35000000000000003331          0.6500000000000000222          1.2700100434257630688         
0.35000000000000003331          0.70000000000000006661         1.2828664664283233598         
0.35000000000000003331          0.75                           1.2956579416333984245         
0.35000000000000003331          0.80000000000000004441         1.3083903585514620183         
0.35000000000000003331          0.85000000000000008882         1.3210821007088000556         
0.35000000000000003331          0.9000000000000000222          1.3337725061760226097         
0.35000000000000003331          0.95000000000000006661         1.3465348970187085431         
0.4000000000000000222           0                              1.1000000000000000888         
0.4000000000000000222           0.050000000000000002776        1.1149010308443252359         
0.4000000000000000222           0.10000000000000000555         1.1298422073173812752         
0.4000000000000000222           0.1500000000000000222          1.1448145450034539206         
0.4000000000000000222           0.2000000000000000111          1.1598078982714790097         
0.4000000000000000222           0.25                           1.1748113067862524517         
0.4000000000000000222           0.30000000000000004441         1.1898133878540464448         
0.4000000000000000222           0.35000000000000003331         1.2048026867945171858         
0.4000000000000000222           0.4000000000000000222          1.2197679250204918056         
0.4000000000000000222           0.4500000000000000111          1.234698139136553019          
0.4000000000000000222           0.5                            1.2495827597775861495         
0.4000000000000000222           0.55000000000000004441         1.2644117245556585338         
0.4000000000000000222           0.60000000000000008882         1.2791757571357154077         
0.4000000000000000222           0.6500000000000000222          1.2938669856724691609         
0.4000000000000000222           0.70000000000000006661         1.3084801376626824521         
0.4000000000000000222           0.75                           1.3230146618128455493         
0.4000000000000000222           0.80000000000000004441         1.3374783260148244146         
0.4000000000000000222           0.85000000000000008882         1.3518931581709028311         
0.4000000000000000222           0.9000000000000000222          1.3663050362678661465         
0.4000000000000000222           0.95000000000000006661         1.3807987043354921219         
0.4500000000000000111           0                              1.1000000000000000888         
0.4500000000000000111           0.050000000000000002776        1.1167781298409249491         
0.4500000000000000111           0.10000000000000000555         1.1335920717646483791         
0.4500000000000000111           0.1500000000000000222          1.150431481003576506          
0.4500000000000000111           0.2000000000000000111          1.1672850646798942353         
0.4500000000000000111           0.25                           1.1841408083743460988         
0.4500000000000000111           0.30000000000000004441         1.2009862549989036573         
0.4500000000000000111           0.35000000000000003331         1.2178087801643604493         
0.4500000000000000111           0.4000000000000000222          1.2345958191375305812         
0.4500000000000000111           0.4500000000000000111          1.2513350374710490165         
0.4500000000000000111           0.5                            1.2680144826301378291         
0.4500000000000000111           0.55000000000000004441         1.2846227969458947626         
0.4500000000000000111           0.60000000000000008882         1.3011496132021980188         
0.4500000000000000111           0.6500000000000000222          1.3175863039113926423         
0.4500000000000000111           0.70000000000000006661         1.3339273352204958911         
0.4500000000000000111           0.75                           1.3501726189404819056         
0.4500000000000000111           0.80000000000000004441         1.366331503243976675          
0.4500000000000000111           0.85000000000000008882         1.3824294325208095202         
0.4500000000000000111           0.9000000000000000222          1.3985188402286632403         
0.4500000000000000111           0.95000000000000006661         1.4146964122178857792         
0.5                             0                              1.1000000000000000888         
0.5                             0.050000000000000002776        1.1186547828179924657         
0.5                             0.10000000000000000555         1.1373406435573938378         
0.5                             0.1500000000000000222          1.1560454061905842682         
0.5                             0.2000000000000000111          1.1747561463040328            
0.5                             0.25                           1.1934593444062404632         
0.5                             0.30000000000000004441         1.2121410847453868431         
0.5                             0.35000000000000003331         1.2307872685591341178         
0.5                             0.4000000000000000222          1.2493838132882262304         
0.5                             0.4500000000000000111          1.2679168347384941473         
0.5                             0.5                            1.2863728449627860329         
0.5                             0.55000000000000004441         1.3047390372567271299         
0.5                             0.60000000000000008882         1.3230037723787717585         
0.5                             0.6500000000000000222          1.3411574388461231511         
0.5                             0.70000000000000006661         1.3591939588817298912         
0.5                             0.75                           1.3771133872176617441         
0.5                             0.80000000000000004441         1.394926349041587299          
0.5                             0.85000000000000008882         1.41266152685597568           
0.5                             0.9000000000000000222          1.4303780319691064005         
0.5                             0.95000000000000006661         1.4481851721844645198         
0.55000000000000004441          0                              1.1000000000000000888         
0.55000000000000004441          0.050000000000000002776        1.1205306708941880078         
0.55000000000000004441          0.10000000000000000555         1.141087309399307026          
0.55000000000000004441          0.1500000000000000222          1.1616554421833547028         
0.55000000000000004441          0.2000000000000000111          1.1822200294087858996         
0.55000000000000004441          0.25                           1.2027655766343920973         
0.55000000000000004441          0.30000000000000004441         1.223276280276804906          
0.55000000000000004441          0.35000000000000003331         1.2437361936511199811         
0.55000000000000004441          0.4000000000000000222          1.2641293991261952634         
0.55000000000000004441          0.4500000000000000111          1.2844401900776252212         
0.55000000000000004441          0.5                            1.3046532950753424451         
0.55000000000000004441          0.55000000000000004441         1.3247542116366763931         
0.55000000000000004441          0.60000000000000008882         1.3447297614583688663         
0.55000000000000004441          0.6500000000000000222          1.3645690474500664635         
0.55000000000000004441          0.70000000000000006661         1.3842651121266231762         
0.55000000000000004441          0.75                           1.4038178078876426547         
0.55000000000000004441          0.80000000000000004441         1.4232387430477537738         
0.55000000000000004441          0.85000000000000008882         1.4425597064410902171         
0.55000000000000004441          0.9000000000000000222          1.4618466942163210742         
0.55000000000000004441          0.95000000000000006661         1.4812224439275885057         
0.60000000000000008882          0                              1.1000000000000000888         
0.60000000000000008882          0.050000000000000002776        1.1224055545738715889         
0.60000000000000008882          0.10000000000000000555         1.1448315926537138143         
0.60000000000000008882          0.1500000000000000222          1.1672608667560233631         
0.60000000000000008882          0.2000000000000000111          1.1896757299016071929         
0.60000000000000008882          0.25                           1.2120582256411818189         
0.60000000000000008882          0.30000000000000004441         1.2343901985813328093         
0.60000000000000008882          0.35000000000000003331         1.2566534259611765734         
0.60000000000000008882          0.4000000000000000222          1.2788297665805643533         
0.60000000000000008882          0.4500000000000000111          1.3009013369497091084         
0.60000000000000008882          0.5                            1.3228507487982410495         
0.60000000000000008882          0.55000000000000004441         1.3446614749358145602         
0.60000000000000008882          0.60000000000000008882         1.3663184579037921385         
0.60000000000000008882          0.6500000000000000222          1.3878091547879469747         
0.60000000000000008882          0.70000000000000006661         1.4091253524667275432         
0.60000000000000008882          0.75                           1.4302663357245612996         
0.60000000000000008882          0.80000000000000004441         1.4512444013271994514         
0.60000000000000008882          0.85000000000000008882         1.4720943305860119121         
0.60000000000000008882          0.9000000000000000222          1.4928892551686618884         
0.60000000000000008882          0.95000000000000006661         1.5137662433869631951         
0.6500000000000000222           0                              1.1000000000000000888         
0.6500000000000000222           0.050000000000000002776        1.1242792913520682774         
0.6500000000000000222           0.10000000000000000555         1.1485731880827558804         
0.6500000000000000222           0.1500000000000000222          1.1728611676377505013         
0.6500000000000000222           0.2000000000000000111          1.1971224700600031632         
0.6500000000000000222           0.25                           1.2213361741523813819         
0.6500000000000000222           0.30000000000000004441         1.2454812824880072686         
0.6500000000000000222           0.35000000000000003331         1.2695368270510163367         
0.6500000000000000222           0.4000000000000000222          1.2934819994617219319         
0.6500000000000000222           0.4500000000000000111          1.3172963200282645779         
0.6500000000000000222           0.5                            1.3409598817342649468         
0.6500000000000000222           0.55000000000000004441         1.364453737923507104          
0.6500000000000000222           0.60000000000000008882         1.3877605539728710138         
0.6500000000000000222           0.6500000000000000222          1.4108657335134433541         
0.6500000000000000222           0.70000000000000006661         1.4337593934050854028         
0.6500000000000000222           0.75                           1.4564398496709378694         
0.6500000000000000222           0.80000000000000004441         1.4789197509604343761         
0.6500000000000000222           0.85000000000000008882         1.5012367077815409466         
0.6500000000000000222           0.9000000000000000222          1.5234712038413791291         
0.6500000000000000222           0.95000000000000006661         1.5457755837937949828         
0.70000000000000006661          0                              1.1000000000000000888         
0.70000000000000006661          0.050000000000000002776        1.1261519053095450094         
0.70000000000000006661          0.10000000000000000555         1.1523120959138528629         
0.70000000000000006661          0.1500000000000000222          1.1784562371240185907         
0.70000000000000006661          0.2000000000000000111          1.2045599339505081993         
0.70000000000000006661          0.25                           1.2305987875274115861         
0.70000000000000006661          0.30000000000000004441         1.256548453275179833          
0.70000000000000006661          0.35000000000000003331         1.2823847235436518499         
0.70000000000000006661          0.4000000000000000222          1.3080836430089903821         
0.70000000000000006661          0.4500000000000000111          1.3336216722956422132         
0.70000000000000006661          0.5                            1.3589759364105824524         
0.70000000000000006661          0.55000000000000004441         1.3841246286442854263         
0.70000000000000006661          0.60000000000000008882         1.409047697143208655          
0.70000000000000006661          0.6500000000000000222          1.4337280433217878262         
0.70000000000000006661          0.70000000000000006661         1.4581536485847583773         
0.70000000000000006661          0.75                           1.4823213780174826493         
0.70000000000000006661          0.80000000000000004441         1.5062437607643490711         
0.70000000000000006661          0.85000000000000008882         1.5299608778071809301         
0.70000000000000006661          0.9000000000000000222          1.553560577430945111          
0.70000000000000006661          0.95000000000000006661         1.5772113685839459496         
0.75                            0                              1.1000000000000000888         
0.75                            0.050000000000000002776        1.1280237518076394743         
0.75                            0.10000000000000000555         1.1560489398210476164         
0.75                            0.1500000000000000222          1.1840468330595488311         
0.75                            0.2000000000000000111          1.211988869248780798          
0.75                            0.25                           1.2398466634056730662         
0.75                            0.30000000000000004441         1.2675920227464236856         
0.75                            0.35000000000000003331         1.2951970022966794449         
0.75                            0.4000000000000000222          1.3226340081774623503         
0.75                            0.4500000000000000111          1.3498759596468925537         
0.75                            0.5                            1.37689654325060018           
0.75                            0.55000000000000004441         1.4036706293268625956         
0.75                            0.60000000000000008882         1.4301749828014598265         
0.75                            0.6500000000000000222          1.4563895128736115137         
0.75                            0.70000000000000006661         1.4822995167099544123         
0.75                            0.75                           1.5078997539571494801         
0.75                            0.80000000000000004441         1.5332018399468374525         