TITLE = 'DEM DATA | DEM DATA | DEM DATA | DEM DATA'
VARIABLES = 'X' 'Y' 'E' 
ZONE T='SubZone'
I=80 J=80 K=1 ZONETYPE=Ordered
DATAPACKING=POINT
DT=(SINGLE SINGLE SINGLE )
0                               0                              1.1000000000000000888         
0                               0.012500000000000000694        1.1000000000000000888         
0                               0.025000000000000001388        1.1000000000000000888         
0                               0.037500000000000005551        1.1000000000000000888         
0                               0.050000000000000002776        1.1000000000000000888         
0                               0.0625                         1.1000000000000000888         
0                               0.075000000000000011102        1.1000000000000000888         
0                               0.087500000000000008327        1.1000000000000000888         
0                               0.10000000000000000555         1.1000000000000000888         
0                               0.11250000000000000278         1.1000000000000000888         
0                               0.125                          1.1000000000000000888         
0                               0.1375000000000000111          1.1000000000000000888         
0                               0.1500000000000000222          1.1000000000000000888         
0                               0.16250000000000000555         1.1000000000000000888         
0                               0.17500000000000001665         1.1000000000000000888         
0                               0.1875                         1.1000000000000000888         
0                               0.2000000000000000111          1.1000000000000000888         
0                               0.2125000000000000222          1.1000000000000000888         
0                               0.22500000000000000555         1.1000000000000000888         
0                               0.23750000000000001665         1.1000000000000000888         
0                               0.25                           1.1000000000000000888         
0                               0.2625000000000000111          1.1000000000000000888         
0                               0.2750000000000000222          1.1000000000000000888         
0                               0.28750000000000003331         1.1000000000000000888         
0                               0.30000000000000004441         1.1000000000000000888         
0                               0.3125                         1.1000000000000000888         
0                               0.3250000000000000111          1.1000000000000000888         
0                               0.3375000000000000222          1.1000000000000000888         
0                               0.35000000000000003331         1.1000000000000000888         
0                               0.36250000000000004441         1.1000000000000000888         
0                               0.375                          1.1000000000000000888         
0                               0.3875000000000000111          1.1000000000000000888         
0                               0.4000000000000000222          1.1000000000000000888         
0                               0.41250000000000003331         1.1000000000000000888         
0                               0.42500000000000004441         1.1000000000000000888         
0                               0.4375                         1.1000000000000000888         
0                               0.4500000000000000111          1.1000000000000000888         
0                               0.4625000000000000222          1.1000000000000000888         
0                               0.47500000000000003331         1.1000000000000000888         
0                               0.48750000000000004441         1.1000000000000000888         
0                               0.5                            1.1000000000000000888         
0                               0.51250000000000006661         1.1000000000000000888         
0                               0.5250000000000000222          1.1000000000000000888         
0                               0.5374999999999999778          1.1000000000000000888         
0                               0.55000000000000004441         1.1000000000000000888         
0                               0.5625                         1.1000000000000000888         
0                               0.57500000000000006661         1.1000000000000000888         
0                               0.5875000000000000222          1.1000000000000000888         
0                               0.60000000000000008882         1.1000000000000000888         
0                               0.61250000000000004441         1.1000000000000000888         
0                               0.625                          1.1000000000000000888         
0                               0.63750000000000006661         1.1000000000000000888         
0                               0.6500000000000000222          1.1000000000000000888         
0                               0.66250000000000008882         1.1000000000000000888         
0                               0.67500000000000004441         1.1000000000000000888         
0                               0.6875                         1.1000000000000000888         
0                               0.70000000000000006661         1.1000000000000000888         
0                               0.7125000000000000222          1.1000000000000000888         
0                               0.72500000000000008882         1.1000000000000000888         
0                               0.73750000000000004441         1.1000000000000000888         
0                               0.75                           1.1000000000000000888         
0                               0.76250000000000006661         1.1000000000000000888         
0                               0.7750000000000000222          1.1000000000000000888         
0                               0.78750000000000008882         1.1000000000000000888         
0                               0.80000000000000004441         1.1000000000000000888         
0                               0.8125                         1.1000000000000000888         
0                               0.82500000000000006661         1.1000000000000000888         
0                               0.8375000000000000222          1.1000000000000000888         
0                               0.85000000000000008882         1.1000000000000000888         
0                               0.86250000000000004441         1.1000000000000000888         
0                               0.875                          1.1000000000000000888         
0                               0.88750000000000006661         1.1000000000000000888         
0                               0.9000000000000000222          1.1000000000000000888         
0                               0.91250000000000008882         1.1000000000000000888         
0                               0.92500000000000004441         1.1000000000000000888         
0                               0.9375                         1.1000000000000000888         
0                               0.95000000000000006661         1.1000000000000000888         
0                               0.9625000000000000222          1.1000000000000000888         
0                               0.97500000000000008882         1.1000000000000000888         
0                               0.98750000000000004441         1.1000000000000000888         
0.012500000000000000694         0                              1.1000000000000000888         
0.012500000000000000694         0.012500000000000000694        1.1001544326512762151         
0.012500000000000000694         0.025000000000000001388        1.1003095031648209012         
0.012500000000000000694         0.037500000000000005551        1.1004649920978677446         
0.012500000000000000694         0.050000000000000002776        1.1006207907931577772         
0.012500000000000000694         0.0625                         1.1007768292599162674         
0.012500000000000000694         0.075000000000000011102        1.1009330554714042982         
0.012500000000000000694         0.087500000000000008327        1.1010894282081371554         
0.012500000000000000694         0.10000000000000000555         1.1012459140521069223         
0.012500000000000000694         0.11250000000000000278         1.1014024858119240147         
0.012500000000000000694         0.125                          1.1015591214895699146         
0.012500000000000000694         0.1375000000000000111          1.1017158034754308549         
0.012500000000000000694         0.1500000000000000222          1.1018725178596566749         
0.012500000000000000694         0.16250000000000000555         1.1020292538221050371         
0.012500000000000000694         0.17500000000000001665         1.1021860030899506278         
0.012500000000000000694         0.1875                         1.1023427594608363744         
0.012500000000000000694         0.2000000000000000111          1.1024995183902952522         
0.012500000000000000694         0.2125000000000000222          1.1026562766413317007         
0.012500000000000000694         0.22500000000000000555         1.1028130319922408997         
0.012500000000000000694         0.23750000000000001665         1.1029697829972191503         
0.012500000000000000694         0.25                           1.1031265287935425601         
0.012500000000000000694         0.2625000000000000111          1.1032832689489922018         
0.012500000000000000694         0.2750000000000000222          1.1034400033425408871         
0.012500000000000000694         0.28750000000000003331         1.103596732073136133          
0.012500000000000000694         0.30000000000000004441         1.1037534553902714762         
0.012500000000000000694         0.3125                         1.1039101736426666367         
0.012500000000000000694         0.3250000000000000111          1.1040668872401786516         
0.012500000000000000694         0.3375000000000000222          1.1042235966264246638         
0.012500000000000000694         0.35000000000000003331         1.1043803022594729235         
0.012500000000000000694         0.36250000000000004441         1.1045370045977183082         
0.012500000000000000694         0.375                          1.1046937040908402228         
0.012500000000000000694         0.3875000000000000111          1.1048504011729065599         
0.012500000000000000694         0.4000000000000000222          1.1050070962579494616         
0.012500000000000000694         0.41250000000000003331         1.1051637897370201191         
0.012500000000000000694         0.42500000000000004441         1.1053204819756041744         
0.012500000000000000694         0.4375                         1.1054771733118013977         
0.012500000000000000694         0.4500000000000000111          1.1056338640542946461         
0.012500000000000000694         0.4625000000000000222          1.1057905544806534426         
0.012500000000000000694         0.47500000000000003331         1.1059472448348350859         
0.012500000000000000694         0.48750000000000004441         1.1061039353241097771         
0.012500000000000000694         0.5                            1.1062606261159810828         
0.012500000000000000694         0.51250000000000006661         1.1064173173329370226         
0.012500000000000000694         0.5250000000000000222          1.1065740090477433899         
0.012500000000000000694         0.5374999999999999778          1.1067307012753342388         
0.012500000000000000694         0.55000000000000004441         1.1068873939646508564         
0.012500000000000000694         0.5625                         1.1070440869873985346         
0.012500000000000000694         0.57500000000000006661         1.1072007801243879399         
0.012500000000000000694         0.5875000000000000222          1.1073574730483501938         
0.012500000000000000694         0.60000000000000008882         1.1075141653025712962         
0.012500000000000000694         0.61250000000000004441         1.1076708562741628405         
0.012500000000000000694         0.625                          1.1078275451612260571         
0.012500000000000000694         0.63750000000000006661         1.1079842309307634807         
0.012500000000000000694         0.6500000000000000222          1.1081409122678151924         
0.012500000000000000694         0.66250000000000008882         1.1082975875109810637         
0.012500000000000000694         0.67500000000000004441         1.1084542545731785879         
0.012500000000000000694         0.6875                         1.1086109108441111193         
0.012500000000000000694         0.70000000000000006661         1.1087675530705782823         
0.012500000000000000694         0.7125000000000000222          1.1089241772117226503         
0.012500000000000000694         0.72500000000000008882         1.1090807782651614932         
0.012500000000000000694         0.73750000000000004441         1.1092373500616816706         
0.012500000000000000694         0.75                           1.1093938850278326491         
0.012500000000000000694         0.76250000000000006661         1.1095503739173742108         
0.012500000000000000694         0.7750000000000000222          1.1097068055205305814         
0.012500000000000000694         0.78750000000000008882         1.1098631663637015254         
0.012500000000000000694         0.80000000000000004441         1.1100194404277716753         
0.012500000000000000694         0.8125                         1.1101756089278269624         
0.012500000000000000694         0.82500000000000006661         1.1103316502205955452         
0.012500000000000000694         0.8375000000000000222          1.1104875399371396671         
0.012500000000000000694         0.85000000000000008882         1.1106432514786004351         
0.012500000000000000694         0.86250000000000004441         1.1107987570616029149         
0.012500000000000000694         0.875                          1.1109540295595377035         
0.012500000000000000694         0.88750000000000006661         1.1111090454466852062         
0.012500000000000000694         0.9000000000000000222          1.111263789213886799          
0.012500000000000000694         0.91250000000000008882         1.1114182596621196009         
0.012500000000000000694         0.92500000000000004441         1.111572478468843217          
0.012500000000000000694         0.9375                         1.1117265013024628661         
0.012500000000000000694         0.95000000000000006661         1.1118804314144019596         
0.012500000000000000694         0.9625000000000000222          1.1120344348090924758         
0.012500000000000000694         0.97500000000000008882         1.1121887540381651949         
0.012500000000000000694         0.98750000000000004441         1.1123437117997891921         
0.025000000000000001388         0                              1.1000000000000000888         
0.025000000000000001388         0.012500000000000000694        1.1003094800034391998         
0.025000000000000001388         0.025000000000000001388        1.1006198265609490328         
0.025000000000000001388         0.037500000000000005551        1.1009308561280763961         
0.025000000000000001388         0.050000000000000002776        1.1012424324916254559         
0.025000000000000001388         0.0625                         1.1015544509306645082         
0.025000000000000001388         0.075000000000000011102        1.1018668265842310738         
0.025000000000000001388         0.087500000000000008327        1.1021794886512177314         
0.025000000000000001388         0.10000000000000000555         1.1024923775145880622         
0.025000000000000001388         0.11250000000000000278         1.1028054431048155415         
0.025000000000000001388         0.125                          1.1031186437449294058         
0.025000000000000001388         0.1375000000000000111          1.1034319451680953961         
0.025000000000000001388         0.1500000000000000222          1.1037453195984592291         
0.025000000000000001388         0.16250000000000000555         1.1040587448693093275         
0.025000000000000001388         0.17500000000000001665         1.1043722035846963436         
0.025000000000000001388         0.1875                         1.104685682340006414          
0.025000000000000001388         0.2000000000000000111          1.1049991710147013535         
0.025000000000000001388         0.2125000000000000222          1.1053126621464248736         
0.025000000000000001388         0.22500000000000000555         1.1056261503897215626         
0.025000000000000001388         0.23750000000000001665         1.1059396320578078754         
0.025000000000000001388         0.25                           1.1062531047422452524         
0.025000000000000001388         0.2625000000000000111          1.1065665670031410439         
0.025000000000000001388         0.2750000000000000222          1.1068800181208879874         
0.025000000000000001388         0.28750000000000003331         1.1071934579007423061         
0.025000000000000001388         0.30000000000000004441         1.1075068865209263258         
0.025000000000000001388         0.3125                         1.1078203044167864721         
0.025000000000000001388         0.3250000000000000111          1.1081337121932297585         
0.025000000000000001388         0.3375000000000000222          1.1084471105596958029         
0.025000000000000001388         0.35000000000000003331         1.1087605002826330658         
0.025000000000000001388         0.36250000000000004441         1.1090738821506733736         
0.025000000000000001388         0.375                          1.1093872569500640157         
0.025000000000000001388         0.3875000000000000111          1.1097006254466608155         
0.025000000000000001388         0.4000000000000000222          1.1100139883732591528         
0.025000000000000001388         0.41250000000000003331         1.1103273464204606036         
0.025000000000000001388         0.42500000000000004441         1.1106407002292051356         
0.025000000000000001388         0.4375                         1.1109540503854180571         
0.025000000000000001388         0.4500000000000000111          1.1112673974139890554         
0.025000000000000001388         0.4625000000000000222          1.1115807417737386675         
0.025000000000000001388         0.47500000000000003331         1.1118940838515019021         
0.025000000000000001388         0.48750000000000004441         1.112207423954244323          
0.025000000000000001388         0.5                            1.1125207623015946901         
0.025000000000000001388         0.51250000000000006661         1.112834099014324174          
0.025000000000000001388         0.5250000000000000222          1.113147434101448896          
0.025000000000000001388         0.5374999999999999778          1.1134607674448326886         
0.025000000000000001388         0.55000000000000004441         1.1137740987782491775         
0.025000000000000001388         0.5625                         1.1140874276624768147         
0.025000000000000001388         0.57500000000000006661         1.1144007534550315341         
0.025000000000000001388         0.5875000000000000222          1.1147140752718198708         
0.025000000000000001388         0.60000000000000008882         1.1150273919390298882         
0.025000000000000001388         0.61250000000000004441         1.1153407019346199824         
0.025000000000000001388         0.625                          1.1156540033153501401         
0.025000000000000001388         0.63750000000000006661         1.1159672936260383036         
0.025000000000000001388         0.6500000000000000222          1.1162805697878912525         
0.025000000000000001388         0.66250000000000008882         1.1165938279613523143         
0.025000000000000001388         0.67500000000000004441         1.1169070633773825474         
0.025000000000000001388         0.6875                         1.1172202701331712671         
0.025000000000000001388         0.70000000000000006661         1.1175334409451511686         
0.025000000000000001388         0.7125000000000000222          1.1178465668547921119         
0.025000000000000001388         0.72500000000000008882         1.1181596368828776722         
0.025000000000000001388         0.73750000000000004441         1.1184726376307483342         
0.025000000000000001388         0.75                           1.1187855528323997767         
0.025000000000000001388         0.76250000000000006661         1.1190983628676571815         
0.025000000000000001388         0.7750000000000000222          1.1194110442608862233         
0.025000000000000001388         0.78750000000000008882         1.1197235692044111843         
0.025000000000000001388         0.80000000000000004441         1.120035905173524915          
0.025000000000000001388         0.8125                         1.1203480147326025929         
0.025000000000000001388         0.82500000000000006661         1.1206598556773947895         
0.025000000000000001388         0.8375000000000000222          1.1209713817173081463         
0.025000000000000001388         0.85000000000000008882         1.1212825439725897514         
0.025000000000000001388         0.86250000000000004441         1.121593293645395617          
0.025000000000000001388         0.875                          1.1219035863165536249         
0.025000000000000001388         0.88750000000000006661         1.1222133884079714683         
0.025000000000000001388         0.9000000000000000222          1.122522686426107752          
0.025000000000000001388         0.91250000000000008882         1.1228314996172790163         
0.025000000000000001388         0.92500000000000004441         1.123139896590016118          
0.025000000000000001388         0.9375                         1.1234480161867543835         
0.025000000000000001388         0.95000000000000006661         1.1237560922878397918         
0.025000000000000001388         0.9625000000000000222          1.1240644810489948124         
0.025000000000000001388         0.97500000000000008882         1.1243736868915619187         
0.025000000000000001388         0.98750000000000004441         1.1246843800058150542         
0.037500000000000005551         0                              1.1000000000000000888         
0.037500000000000005551         0.012500000000000000694        1.1004648704694319772         
0.037500000000000005551         0.025000000000000001388        1.1009307064677040788         
0.037500000000000005551         0.037500000000000005551        1.1013973785659849636         
0.037500000000000005551         0.050000000000000002776        1.1018647625805233492         
0.037500000000000005551         0.0625                         1.1023327464624028682         
0.037500000000000005551         0.075000000000000011102        1.1028012304102241536         
0.037500000000000005551         0.087500000000000008327        1.1032701259949340145         
0.037500000000000005551         0.10000000000000000555         1.1037393554807972684         
0.037500000000000005551         0.11250000000000000278         1.104208851303957406          
0.037500000000000005551         0.125                          1.104678555539959639          
0.037500000000000005551         0.1375000000000000111          1.1051484192690725905         
0.037500000000000005551         0.1500000000000000222          1.1056184018235777344         
0.037500000000000005551         0.16250000000000000555         1.1060884699428947808         
0.037500000000000005551         0.17500000000000001665         1.1065585968794515725         
0.037500000000000005551         0.1875                         1.1070287614997225134         
0.037500000000000005551         0.2000000000000000111          1.1074989474182057592         
0.037500000000000005551         0.2125000000000000222          1.1079691421929438455         
0.037500000000000005551         0.22500000000000000555         1.1084393366005560466         
0.037500000000000005551         0.23750000000000001665         1.1089095240005313325         
0.037500000000000005551         0.25                           1.109379699790561169          
0.037500000000000005551         0.2625000000000000111          1.1098498609497626788         
0.037500000000000005551         0.2750000000000000222          1.1103200056628568237         
0.037500000000000005551         0.28750000000000003331         1.1107901330164973164         
0.037500000000000005551         0.30000000000000004441         1.1112602427575806185         
0.037500000000000005551         0.3125                         1.1117303351043310577         
0.037500000000000005551         0.3250000000000000111          1.112200410600045597          
0.037500000000000005551         0.3375000000000000222          1.1126704700019434124         
0.037500000000000005551         0.35000000000000003331         1.1131405141976205009         
0.037500000000000005551         0.36250000000000004441         1.1136105441425794282         
0.037500000000000005551         0.375                          1.1140805608142971828         
0.037500000000000005551         0.3875000000000000111          1.1145505651783802481         
0.037500000000000005551         0.4000000000000000222          1.1150205581634105023         
0.037500000000000005551         0.41250000000000003331         1.1154905406424109326         
0.037500000000000005551         0.42500000000000004441         1.1159605134179553243         
0.037500000000000005551         0.4375                         1.1164304772103006425         
0.037500000000000005551         0.4500000000000000111          1.1169004326463651822         
0.037500000000000005551         0.4625000000000000222          1.1173703802491978809         
0.037500000000000005551         0.47500000000000003331         1.1178403204264995008         
0.037500000000000005551         0.48750000000000004441         1.1183102534576552234         
0.037500000000000005551         0.5                            1.1187801794792353594         
0.037500000000000005551         0.51250000000000006661         1.1192500984652473672         
0.037500000000000005551         0.5250000000000000222          1.1197200102066553473         
0.037500000000000005551         0.5374999999999999778          1.1201899142820912481         
0.037500000000000005551         0.55000000000000004441         1.120659810025273817          
0.037500000000000005551         0.5625                         1.1211296964828165734         
0.037500000000000005551         0.57500000000000006661         1.1215995723628795488         
0.037500000000000005551         0.5875000000000000222          1.1220694359715421839         
0.037500000000000005551         0.60000000000000008882         1.1225392851345956657         
0.037500000000000005551         0.61250000000000004441         1.1230091171004312756         
0.037500000000000005551         0.625                          1.123478928421532963          
0.037500000000000005551         0.63750000000000006661         1.1239487148076650058         
0.037500000000000005551         0.6500000000000000222          1.1244184709476154893         
0.037500000000000005551         0.66250000000000008882         1.1248881902908294261         
0.037500000000000005551         0.67500000000000004441         1.1253578647840625226         
0.037500000000000005551         0.6875                         1.1258274845555131805         
0.037500000000000005551         0.70000000000000006661         1.1262970375394700806         
0.037500000000000005551         0.7125000000000000222          1.1267665090376333126         
0.037500000000000005551         0.72500000000000008882         1.1272358812148395302         
0.037500000000000005551         0.73750000000000004441         1.1277051325330040843         
0.037500000000000005551         0.75                           1.1281742371374954281         
0.037500000000000005551         0.76250000000000006661         1.1286431642201764092         
0.037500000000000005551         0.7750000000000000222          1.1291118774082429255         
0.037500000000000005551         0.78750000000000008882         1.1295803342513999201         
0.037500000000000005551         0.80000000000000004441         1.1300484859206754162         
0.037500000000000005551         0.8125                         1.1305162772820323003         
0.037500000000000005551         0.82500000000000006661         1.1309836475705306036         
0.037500000000000005551         0.8375000000000000222          1.131450531971078588          
0.037500000000000005551         0.85000000000000008882         1.1319168645030539544         
0.037500000000000005551         0.86250000000000004441         1.1323825827092868224         
0.037500000000000005551         0.875                          1.1328476347551572623         
0.037500000000000005551         0.88750000000000006661         1.1333119896343657462         
0.037500000000000005551         0.9000000000000000222          1.133775651235055193          
0.037500000000000005551         0.91250000000000008882         1.1342386769964594162         
0.037500000000000005551         0.92500000000000004441         1.134701201732461584          
0.037500000000000005551         0.9375                         1.1351634668219741098         
0.037500000000000005551         0.95000000000000006661         1.1356258542498549602         