TITLE = 'DEM DATA | DEM DATA | DEM DATA | DEM DATA'
VARIABLES = 'X' 'Y' 'E' 
ZONE T='SubZone'
I=80 J=80 K=1 ZONETYPE=Ordered
DATAPACKING=POINT
DT=(SINGLE SINGLE SINGLE )
0                               0                              1.1000000000000000888         
0                               0.012500000000000000694        1.1000000000000000888         
0                               0.025000000000000001388        1.1000000000000000888         
0                               0.037500000000000005551        1.1000000000000000888         
0                               0.050000000000000002776        1.1000000000000000888         
0                               0.0625                         1.1000000000000000888         
0                               0.075000000000000011102        1.1000000000000000888         
0                               0.087500000000000008327        1.1000000000000000888         
0                               0.10000000000000000555         1.1000000000000000888         
0                               0.11250000000000000278         1.1000000000000000888         
0                               0.125                          1.1000000000000000888         
0                               0.1375000000000000111          1.1000000000000000888         
0                               0.1500000000000000222          1.1000000000000000888         
0                               0.16250000000000000555         1.1000000000000000888         
0                               0.17500000000000001665         1.1000000000000000888         
0                               0.1875                         1.1000000000000000888         
0                               0.2000000000000000111          1.1000000000000000888         
0                               0.2125000000000000222          1.1000000000000000888         
0                               0.22500000000000000555         1.1000000000000000888         
0                               0.23750000000000001665         1.1000000000000000888         
0                               0.25                           1.1000000000000000888         
0                               0.2625000000000000111          1.1000000000000000888         
0                               0.2750000000000000222          1.1000000000000000888         
0                               0.28750000000000003331         1.1000000000000000888         
0                               0.30000000000000004441         1.1000000000000000888         
0                               0.3125                         1.1000000000000000888         
0                               0.3250000000000000111          1.1000000000000000888         
0                               0.3375000000000000222          1.1000000000000000888         
0                               0.35000000000000003331         1.1000000000000000888         
0                               0.36250000000000004441         1.1000000000000000888         
0                               0.375                          1.1000000000000000888         
0                               0.3875000000000000111          1.1000000000000000888         
0                               0.4000000000000000222          1.1000000000000000888         
0                               0.41250000000000003331         1.1000000000000000888         
0                               0.42500000000000004441         1.1000000000000000888         
0                               0.4375                         1.1000000000000000888         
0                               0.4500000000000000111          1.1000000000000000888         
0                               0.4625000000000000222          1.1000000000000000888         
0                               0.47500000000000003331         1.1000000000000000888         
0                               0.48750000000000004441         1.1000000000000000888         
0                               0.5                            1.1000000000000000888         
0                               0.51250000000000006661         1.1000000000000000888         
0                               0.5250000000000000222          1.1000000000000000888         
0                               0.5374999999999999778          1.1000000000000000888         
0                               0.55000000000000004441         1.1000000000000000888         
0                               0.5625                         1.1000000000000000888         
0                               0.57500000000000006661         1.1000000000000000888         
0                               0.5875000000000000222          1.1000000000000000888         
0                               0.60000000000000008882         1.1000000000000000888         
0                               0.61250000000000004441         1.1000000000000000888         
0                               0.625                          1.1000000000000000888         
0                               0.63750000000000006661         1.1000000000000000888         
0                               0.6500000000000000222          1.1000000000000000888         
0                               0.66250000000000008882         1.1000000000000000888         
0                               0.67500000000000004441         1.1000000000000000888         
0                               0.6875                         1.1000000000000000888         
0                               0.70000000000000006661         1.1000000000000000888         
0                               0.7125000000000000222          1.1000000000000000888         
0                               0.72500000000000008882         1.1000000000000000888         
0                               0.73750000000000004441         1.1000000000000000888         
0                               0.75                           1.1000000000000000888         
0                               0.76250000000000006661         1.1000000000000000888         
0                               0.7750000000000000222          1.1000000000000000888         
0                               0.78750000000000008882         1.1000000000000000888         
0                               0.80000000000000004441         1.1000000000000000888         
0                               0.8125                         1.1000000000000000888         
0                               0.82500000000000006661         1.1000000000000000888         
0                               0.8375000000000000222          1.1000000000000000888         
0                               0.85000000000000008882         1.1000000000000000888         
0                               0.86250000000000004441         1.1000000000000000888         
0                               0.875                          1.1000000000000000888         
0                               0.88750000000000006661         1.1000000000000000888         
0                               0.9000000000000000222          1.1000000000000000888         
0                               0.91250000000000008882         1.1000000000000000888         
0                               0.92500000000000004441         1.1000000000000000888         
0                               0.9375                         1.1000000000000000888         
0                               0.95000000000000006661         1.1000000000000000888         
0                               0.9625000000000000222          1.1000000000000000888         
0                               0.97500000000000008882         1.1000000000000000888         
0                               0.98750000000000004441         1.1000000000000000888         
0.012500000000000000694         0                              1.1000000000000000888         
0.012500000000000000694         0.012500000000000000694        1.1001155571249441323         
0.012500000000000000694         0.025000000000000001388        1.1002317039477242933         
0.012500000000000000694         0.037500000000000005551        1.1003482360693990216         
0.012500000000000000694         0.050000000000000002776        1.1004650524400552136         
0.012500000000000000694         0.0625                         1.1005820882655588111         
0.012500000000000000694         0.075000000000000011102        1.1006992956613450563         
0.012500000000000000694         0.087500000000000008327        1.1008166369069896096         
0.012500000000000000694         0.10000000000000000555         1.1009340815773316358         
0.012500000000000000694         0.11250000000000000278         1.1010516050220142681         
0.012500000000000000694         0.125                          1.1011691873653595142         
0.012500000000000000694         0.1375000000000000111          1.1012868127331292278         
0.012500000000000000694         0.1500000000000000222          1.1014044685999433426         
0.012500000000000000694         0.16250000000000000555         1.1015221452195198548         
0.012500000000000000694         0.17500000000000001665         1.1016398351250953347         
0.012500000000000000694         0.1875                         1.1017575326955006965         
0.012500000000000000694         0.2000000000000000111          1.1018752337839434752         
0.012500000000000000694         0.2125000000000000222          1.1019929354052664383         
0.012500000000000000694         0.22500000000000000555         1.1021106354773504421         
0.012500000000000000694         0.23750000000000001665         1.1022283326102659817         
0.012500000000000000694         0.25                           1.1023460259372224179         
0.012500000000000000694         0.2625000000000000111          1.102463714980868259          
0.012500000000000000694         0.2750000000000000222          1.1025813995489017749         
0.012500000000000000694         0.28750000000000003331         1.1026990796540820927         
0.012500000000000000694         0.30000000000000004441         1.1028167554526886462         
0.012500000000000000694         0.3125                         1.1029344271992174153         
0.012500000000000000694         0.3250000000000000111          1.1030520952119262645         
0.012500000000000000694         0.3375000000000000222          1.1031697598480441069         
0.012500000000000000694         0.35000000000000003331         1.1032874214857981698         
0.012500000000000000694         0.36250000000000004441         1.103405080511233427          
0.012500000000000000694         0.375                          1.1035227373092111325         
0.012500000000000000694         0.3875000000000000111          1.1036403922570041658         
0.012500000000000000694         0.4000000000000000222          1.1037580457195446115         
0.012500000000000000694         0.41250000000000003331         1.103875698046515863          
0.012500000000000000694         0.42500000000000004441         1.1039933495697380472         
0.012500000000000000694         0.4375                         1.1041110006016658929         
0.012500000000000000694         0.4500000000000000111          1.1042286514332493308         
0.012500000000000000694         0.4625000000000000222          1.1043463023325845729         
0.012500000000000000694         0.47500000000000003331         1.1044639535431739485         
0.012500000000000000694         0.48750000000000004441         1.104581605281079959          
0.012500000000000000694         0.5                            1.1046992577324359353         
0.012500000000000000694         0.51250000000000006661         1.1048169110503875956         
0.012500000000000000694         0.5250000000000000222          1.1049345653491922103         
0.012500000000000000694         0.5374999999999999778          1.1050522207000172958         
0.012500000000000000694         0.55000000000000004441         1.1051698771225462181         
0.012500000000000000694         0.5625                         1.1052875345762678272         
0.012500000000000000694         0.57500000000000006661         1.1054051929492032524         
0.012500000000000000694         0.5875000000000000222          1.1055228520433790784         
0.012500000000000000694         0.60000000000000008882         1.1056405115570486775         
0.012500000000000000694         0.61250000000000004441         1.1057581710623920479         
0.012500000000000000694         0.625                          1.1058758299779494205         
0.012500000000000000694         0.63750000000000006661         1.105993487533876829          
0.012500000000000000694         0.6500000000000000222          1.1061111427294900711         
0.012500000000000000694         0.66250000000000008882         1.1062287942803801233         
0.012500000000000000694         0.67500000000000004441         1.1063464405530551993         
0.012500000000000000694         0.6875                         1.1064640794854914141         
0.012500000000000000694         0.70000000000000006661         1.106581708489344118          
0.012500000000000000694         0.7125000000000000222          1.1066993243323401952         
0.012500000000000000694         0.72500000000000008882         1.1068169229963964462         
0.012500000000000000694         0.73750000000000004441         1.1069344995092813555         
0.012500000000000000694         0.75                           1.1070520477475995769         
0.012500000000000000694         0.76250000000000006661         1.1071695602090134702         
0.012500000000000000694         0.7750000000000000222          1.1072870277561102093         
0.012500000000000000694         0.78750000000000008882         1.1074044393354622873         
0.012500000000000000694         0.80000000000000004441         1.107521781682841544          
0.012500000000000000694         0.8125                         1.1076390390328412217         
0.012500000000000000694         0.82500000000000006661         1.1077561928630375032         
0.012500000000000000694         0.8375000000000000222          1.1078732217196303189         
0.012500000000000000694         0.85000000000000008882         1.1079901011929071952         
0.012500000000000000694         0.86250000000000004441         1.1081068041411117342         
0.012500000000000000694         0.875                          1.1082233012980573506         
0.012500000000000000694         0.88750000000000006661         1.1083395624463281415         
0.012500000000000000694         0.9000000000000000222          1.1084555583926607447         
0.012500000000000000694         0.91250000000000008882         1.1085712640423239783         
0.012500000000000000694         0.92500000000000004441         1.1086866629286422636         
0.012500000000000000694         0.9375                         1.1088017535977032768         
0.012500000000000000694         0.95000000000000006661         1.1089165582460025483         
0.012500000000000000694         0.9625000000000000222          1.1090311338933040997         
0.012500000000000000694         0.97500000000000008882         1.1091455859485401803         
0.012500000000000000694         0.98750000000000004441         1.1092600825916585361         
0.025000000000000001388         0                              1.1000000000000000888         
0.025000000000000001388         0.012500000000000000694        1.1002316792613930918         
0.025000000000000001388         0.025000000000000001388        1.1004641598934548075         
0.025000000000000001388         0.037500000000000005551        1.1006972697715846632         
0.025000000000000001388         0.050000000000000002776        1.1009308817672789349         
0.025000000000000001388         0.0625                         1.1011648987249487153         
0.025000000000000001388         0.075000000000000011102        1.1013992424325851349         
0.025000000000000001388         0.087500000000000008327        1.10163384805257758           
0.025000000000000001388         0.10000000000000000555         1.1018686613012955711         
0.025000000000000001388         0.11250000000000000278         1.1021036368097079094         
0.025000000000000001388         0.125                          1.1023387369598953711         
0.025000000000000001388         0.1375000000000000111          1.1025739309088482543         
0.025000000000000001388         0.1500000000000000222          1.1028091936954838026         
0.025000000000000001388         0.16250000000000000555         1.1030445054030051377         
0.025000000000000001388         0.17500000000000001665         1.1032798503785212763         
0.025000000000000001388         0.1875                         1.1035152165194153095         
0.025000000000000001388         0.2000000000000000111          1.1037505946351175989         
0.025000000000000001388         0.2125000000000000222          1.1039859778886489394         
0.025000000000000001388         0.22500000000000000555         1.1042213613184208576         
0.025000000000000001388         0.23750000000000001665         1.1044567414360662028         
0.025000000000000001388         0.25                           1.1046921158947275998         
0.025000000000000001388         0.2625000000000000111          1.1049274832194286855         
0.025000000000000001388         0.2750000000000000222          1.1051628425911397269         
0.025000000000000001388         0.28750000000000003331         1.1053981936766641425         
0.025000000000000001388         0.30000000000000004441         1.1056335364955902634         
0.025000000000000001388         0.3125                         1.1058688713183753016         
0.025000000000000001388         0.3250000000000000111          1.1061041985883086625         
0.025000000000000001388         0.3375000000000000222          1.1063395188627915822         
0.025000000000000001388         0.35000000000000003331         1.1065748327699347353         
0.025000000000000001388         0.36250000000000004441         1.106810140975858614          
0.025000000000000001388         0.375                          1.1070454441614150376         
0.025000000000000001388         0.3875000000000000111          1.1072807430044222521         
0.025000000000000001388         0.4000000000000000222          1.1075160381671118603         
0.025000000000000001388         0.41250000000000003331         1.1077513302869175238         
0.025000000000000001388         0.42500000000000004441         1.1079866199689218931         
0.025000000000000001388         0.4375                         1.1082219077802015761         
0.025000000000000001388         0.4500000000000000111          1.1084571942446010961         
0.025000000000000001388         0.4625000000000000222          1.1086924798376465162         
0.025000000000000001388         0.47500000000000003331         1.1089277649812807613         
0.025000000000000001388         0.48750000000000004441         1.1091630500375555535         
0.025000000000000001388         0.5                            1.1093983353014102988         
0.025000000000000001388         0.51250000000000006661         1.1096336209921695559         
0.025000000000000001388         0.5250000000000000222          1.1098689072420020452         
0.025000000000000001388         0.5374999999999999778          1.1101041940819276199         
0.025000000000000001388         0.55000000000000004441         1.110339481425432373          
0.025000000000000001388         0.5625                         1.1105747690468166233         
0.025000000000000001388         0.57500000000000006661         1.11081005655499232           
0.025000000000000001388         0.5875000000000000222          1.1110453433607272444         
0.025000000000000001388         0.60000000000000008882         1.1112806286363110519         
0.025000000000000001388         0.61250000000000004441         1.1115159112653898443         
0.025000000000000001388         0.625                          1.1117511897815175459         
0.025000000000000001388         0.63750000000000006661         1.1119864622918962382         
0.025000000000000001388         0.6500000000000000222          1.1122217263848854785         
0.025000000000000001388         0.66250000000000008882         1.1124569790159815064         
0.025000000000000001388         0.67500000000000004441         1.1126922163695125434         
0.025000000000000001388         0.6875                         1.112927433691706991          
0.025000000000000001388         0.70000000000000006661         1.1131626250899626651         
0.025000000000000001388         0.7125000000000000222          1.1133977832942383301         
0.025000000000000001388         0.72500000000000008882         1.1136328993759676553         
0.025000000000000001388         0.73750000000000004441         1.1138679624216953901         
0.025000000000000001388         0.75                           1.1141029591609128424         
0.025000000000000001388         0.76250000000000006661         1.1143378735497038168         
0.025000000000000001388         0.7750000000000000222          1.1145726863200315915         
0.025000000000000001388         0.78750000000000008882         1.114807374510675686          
0.025000000000000001388         0.80000000000000004441         1.1150419110092066877         
0.025000000000000001388         0.8125                         1.1152762641528559673         
0.025000000000000001388         0.82500000000000006661         1.1155103974564939406         
0.025000000000000001388         0.8375000000000000222          1.1157442695717241232         
0.025000000000000001388         0.85000000000000008882         1.1159778346171727037         
0.025000000000000001388         0.86250000000000004441         1.1162110430752749668         
0.025000000000000001388         0.875                          1.1164438435112451486         
0.025000000000000001388         0.88750000000000006661         1.1166761854422968536         
0.025000000000000001388         0.9000000000000000222          1.1169080237685853341         
0.025000000000000001388         0.91250000000000008882         1.1171393252548018626         
0.025000000000000001388         0.92500000000000004441         1.117370077620973623          
0.025000000000000001388         0.9375                         1.1176003018262858912         
0.025000000000000001388         0.95000000000000006661         1.1178300680727502048         
0.025000000000000001388         0.9625000000000000222          1.1180595158372539366         
0.025000000000000001388         0.97500000000000008882         1.1182888777366051247         
0.025000000000000001388         0.98750000000000004441         1.1185185061620130931         
0.037500000000000005551         0                              1.1000000000000000888         
0.037500000000000005551         0.012500000000000000694        1.1003481154560703636         
0.037500000000000005551         0.025000000000000001388        1.1006971243120164949         
0.037500000000000005551         0.037500000000000005551        1.1010469038388046581         
0.037500000000000005551         0.050000000000000002776        1.1013973375217138706         
0.037500000000000005551         0.0625                         1.1017483211395417975         
0.037500000000000005551         0.075000000000000011102        1.1020997626038591122         
0.037500000000000005551         0.087500000000000008327        1.1024515809142751976         
0.037500000000000005551         0.10000000000000000555         1.1028037053240373755         
0.037500000000000005551         0.11250000000000000278         1.1031560746813755536         
0.037500000000000005551         0.125                          1.10350863679297162           
0.037500000000000005551         0.1375000000000000111          1.1038613477264256346         
0.037500000000000005551         0.1500000000000000222          1.104214171036660419          
0.037500000000000005551         0.16250000000000000555         1.10456707693747469           
0.037500000000000005551         0.17500000000000001665         1.1049200414539601667         
0.037500000000000005551         0.1875                         1.1052730455914350216         
0.037500000000000005551         0.2000000000000000111          1.1056260745503212473         
0.037500000000000005551         0.2125000000000000222          1.1059791170080055522         
0.037500000000000005551         0.22500000000000000555         1.1063321644795702792         
0.037500000000000005551         0.23750000000000001665         1.1066852107623919022         
0.037500000000000005551         0.25                           1.1070382514636354365         
0.037500000000000005551         0.2625000000000000111          1.1073912836057306919         
0.037500000000000005551         0.2750000000000000222          1.1077443053020084029         
0.037500000000000005551         0.28750000000000003331         1.1080973154948587922         
0.037500000000000005551         0.30000000000000004441         1.1084503137459424948         
0.037500000000000005551         0.3125                         1.1088033000715988852         
0.037500000000000005551         0.3250000000000000111          1.1091562748139243144         
0.037500000000000005551         0.3375000000000000222          1.1095092385414679903         
0.037500000000000005551         0.35000000000000003331         1.1098621919735494057         
0.037500000000000005551         0.36250000000000004441         1.1102151359223149107         
0.037500000000000005551         0.375                          1.1105680712495775708         
0.037500000000000005551         0.3875000000000000111          1.1109209988337898078         
0.037500000000000005551         0.4000000000000000222          1.1112739195452423502         
0.037500000000000005551         0.41250000000000003331         1.1116268342273247782         
0.037500000000000005551         0.42500000000000004441         1.1119797436811176272         
0.037500000000000005551         0.4375                         1.1123326486534719226         
0.037500000000000005551         0.4500000000000000111          1.11268554982587764           
0.037500000000000005551         0.4625000000000000222          1.1130384478038879426         
0.037500000000000005551         0.47500000000000003331         1.1133913431068578337         
0.037500000000000005551         0.48750000000000004441         1.1137442361556231241         
0.037500000000000005551         0.5                            1.1140971272589133001         
0.037500000000000005551         0.51250000000000006661         1.1144500165975472772         
0.037500000000000005551         0.5250000000000000222          1.114802904204149625          
0.037500000000000005551         0.5374999999999999778          1.1151557899386987938         
0.037500000000000005551         0.55000000000000004441         1.1155086734598922416         
0.037500000000000005551         0.5625                         1.1158615541875880339         
0.037500000000000005551         0.57500000000000006661         1.1162144312584119099         
0.037500000000000005551         0.5875000000000000222          1.1165673034710257294         
0.037500000000000005551         0.60000000000000008882         1.1169201692178865049         
0.037500000000000005551         0.61250000000000004441         1.1172730264027790348         
0.037500000000000005551         0.625                          1.1176258723400969153         
0.037500000000000005551         0.63750000000000006661         1.117978703631552051          
0.037500000000000005551         0.6500000000000000222          1.1183315160176872105         
0.037500000000000005551         0.66250000000000008882         1.1186843041979415148         
0.037500000000000005551         0.67500000000000004441         1.11903706161505756           
0.037500000000000005551         0.6875                         1.1193897801994574515         
0.037500000000000005551         0.70000000000000006661         1.1197424500659343138         
0.037500000000000005551         0.7125000000000000222          1.1200950591612128804         
0.037500000000000005551         0.72500000000000008882         1.1204475928571526744         
0.037500000000000005551         0.73750000000000004441         1.1208000334907097795         
0.037500000000000005551         0.75                           1.1211523598545578562         
0.037500000000000005551         0.76250000000000006661         1.1215045466487651993         
0.037500000000000005551         0.7750000000000000222          1.1218565639152224822         
0.037500000000000005551         0.78750000000000008882         1.1222083764888215462         
0.037500000000000005551         0.80000000000000004441         1.1225599435189166364         
0.037500000000000005551         0.8125                         1.1229112181419502736         
0.037500000000000005551         0.82500000000000006661         1.1232621474156057051         
0.037500000000000005551         0.8375000000000000222          1.1236126726726605174         
0.037500000000000005551         0.85000000000000008882         1.1239627305009818325         
0.037500000000000005551         0.86250000000000004441         1.1243122546236312687         
0.037500000000000005551         0.875                          1.1246611790262366348         
0.037500000000000005551         0.88750000000000006661         1.1250094427606387448         
0.037500000000000005551         0.9000000000000000222          1.1253569969402679174         
0.037500000000000005551         0.91250000000000008882         1.1257038145154145692         
0.037500000000000005551         0.92500000000000004441         1.1260499034663131734         
0.037500000000000005551         0.9375                         1.1263953240380015774         
0.037500000000000005551         0.95000000000000006661         1.1267402105204542551         