TITLE = 'DEM DATA | DEM DATA | DEM DATA | DEM DATA'
VARIABLES = 'X' 'Y' 'E' 
ZONE T='SubZone'
I=40 J=40 K=1 ZONETYPE=Ordered
DATAPACKING=POINT
DT=(SINGLE SINGLE SINGLE )
0                               0                              0                             
0                               0.025000000000000001388        0                             
0                               0.050000000000000002776        0                             
0                               0.075000000000000011102        0                             
0                               0.10000000000000000555         0                             
0                               0.125                          0                             
0                               0.1500000000000000222          0                             
0                               0.17500000000000001665         0                             
0                               0.2000000000000000111          0                             
0                               0.22500000000000000555         0                             
0                               0.25                           0                             
0                               0.2750000000000000222          0                             
0                               0.30000000000000004441         0                             
0                               0.3250000000000000111          0                             
0                               0.35000000000000003331         0                             
0                               0.375                          0                             
0                               0.4000000000000000222          0                             
0                               0.42500000000000004441         0                             
0                               0.4500000000000000111          0                             
0                               0.47500000000000003331         0                             
0                               0.5                            0                             
0                               0.5250000000000000222          0                             
0                               0.55000000000000004441         0                             
0                               0.57500000000000006661         0                             
0                               0.60000000000000008882         0                             
0                               0.625                          0                             
0                               0.6500000000000000222          0                             
0                               0.67500000000000004441         0                             
0                               0.70000000000000006661         0                             
0                               0.72500000000000008882         0                             
0                               0.75                           0                             
0                               0.7750000000000000222          0                             
0                               0.80000000000000004441         0                             
0                               0.82500000000000006661         0                             
0                               0.85000000000000008882         0                             
0                               0.875                          0                             
0                               0.9000000000000000222          0                             
0                               0.92500000000000004441         0                             
0                               0.95000000000000006661         0                             
0                               0.97500000000000008882         0                             
0.025000000000000001388         0                              0                             
0.025000000000000001388         0.025000000000000001388        1.2661256900026174321e-05     
0.025000000000000001388         0.050000000000000002776        2.059505913876158445e-05      
0.025000000000000001388         0.075000000000000011102        2.5547191047747830339e-05     
0.025000000000000001388         0.10000000000000000555         2.8462837516673999971e-05     
0.025000000000000001388         0.125                          2.9968651820810876529e-05     
0.025000000000000001388         0.1500000000000000222          3.0513339657867177834e-05     
0.025000000000000001388         0.17500000000000001665         3.0423321706773975848e-05     
0.025000000000000001388         0.2000000000000000111          2.9933685567806733729e-05     
0.025000000000000001388         0.22500000000000000555         2.921009059964063681e-05      
0.025000000000000001388         0.25                           2.8365951904696373731e-05     
0.025000000000000001388         0.2750000000000000222          2.7476197486109299462e-05     
0.025000000000000001388         0.30000000000000004441         2.6588136658123318057e-05     
0.025000000000000001388         0.3250000000000000111          2.5729847637823155537e-05     
0.025000000000000001388         0.35000000000000003331         2.4916497805005377586e-05     
0.025000000000000001388         0.375                          2.4155014546778375006e-05     
0.025000000000000001388         0.4000000000000000222          2.3447500588469338823e-05     
0.025000000000000001388         0.42500000000000004441         2.2793742278537365564e-05     
0.025000000000000001388         0.4500000000000000111          2.2193105109202804215e-05     
0.025000000000000001388         0.47500000000000003331         2.1646060034186120902e-05     
0.025000000000000001388         0.5                            2.1155542022199824714e-05     
0.025000000000000001388         0.5250000000000000222          2.0728310953233020086e-05     
0.025000000000000001388         0.55000000000000004441         2.0376468711669204481e-05     
0.025000000000000001388         0.57500000000000006661         2.0119275109919954048e-05     
0.025000000000000001388         0.60000000000000008882         1.9985404224209801782e-05     
0.025000000000000001388         0.625                          2.0015774761628080114e-05     
0.025000000000000001388         0.6500000000000000222          2.0267072404767105809e-05     
0.025000000000000001388         0.67500000000000004441         2.0816029375314570871e-05     
0.025000000000000001388         0.70000000000000006661         2.1764418168812582621e-05     
0.025000000000000001388         0.72500000000000008882         2.3244503144503880776e-05     
0.025000000000000001388         0.75                           2.5424313662147923765e-05     
0.025000000000000001388         0.7750000000000000222          2.8511470399283922461e-05     
0.025000000000000001388         0.80000000000000004441         3.2753297076304477287e-05     
0.025000000000000001388         0.82500000000000006661         3.8429457798416777337e-05     
0.025000000000000001388         0.85000000000000008882         4.5831264434248453199e-05     
0.025000000000000001388         0.875                          5.5219083517910050318e-05     
0.025000000000000001388         0.9000000000000000222          6.6746208206902579718e-05     
0.025000000000000001388         0.92500000000000004441         8.0335094558625641525e-05     
0.025000000000000001388         0.95000000000000006661         9.5492715164402497408e-05     
0.025000000000000001388         0.97500000000000008882         0.00011106413856176722277     
0.050000000000000002776         0                              0                             
0.050000000000000002776         0.025000000000000001388        2.1267576616468275574e-05     
0.050000000000000002776         0.050000000000000002776        3.6193219092650608104e-05     
0.050000000000000002776         0.075000000000000011102        4.6286961295383122206e-05     
0.050000000000000002776         0.10000000000000000555         5.275544119776043317e-05      
0.050000000000000002776         0.125                          5.6548374433695869357e-05     
0.050000000000000002776         0.1500000000000000222          5.8413719118854956491e-05     
0.050000000000000002776         0.17500000000000001665         5.8933678669159661467e-05     
0.050000000000000002776         0.2000000000000000111          5.8552099711173255514e-05     
0.050000000000000002776         0.22500000000000000555         5.7598757086330110155e-05     
0.050000000000000002776         0.25                           5.6311745453507811021e-05     
0.050000000000000002776         0.2750000000000000222          5.4857669518737495196e-05     
0.050000000000000002776         0.30000000000000004441         5.3349134751190518955e-05     
0.050000000000000002776         0.3250000000000000111          5.1859301370082988569e-05     
0.050000000000000002776         0.35000000000000003331         5.043358175083056949e-05      
0.050000000000000002776         0.375                          4.9098795352531254821e-05     
0.050000000000000002776         0.4000000000000000222          4.7870222589674327196e-05     
0.050000000000000002776         0.42500000000000004441         4.6757037496680808886e-05     
0.050000000000000002776         0.4500000000000000111          4.5766583027129215111e-05     
0.050000000000000002776         0.47500000000000003331         4.4907909235725185226e-05     
0.050000000000000002776         0.5                            4.4194944494480026265e-05     
0.050000000000000002776         0.5250000000000000222          4.3649625307562445187e-05     
0.050000000000000002776         0.55000000000000004441         4.3305274130656101761e-05     
0.050000000000000002776         0.57500000000000006661         4.3210485168421186586e-05     
0.050000000000000002776         0.60000000000000008882         4.3433747920484933047e-05     
0.050000000000000002776         0.625                          4.4068987975487416975e-05     
0.050000000000000002776         0.6500000000000000222          4.5242114685706269483e-05     
0.050000000000000002776         0.67500000000000004441         4.7118492136011269622e-05     
0.050000000000000002776         0.70000000000000006661         4.9910944589948158523e-05     
0.050000000000000002776         0.72500000000000008882         5.3887392150953061787e-05     
0.050000000000000002776         0.75                           5.9376386047249596345e-05     
0.050000000000000002776         0.7750000000000000222          6.6767558457359044155e-05     
0.050000000000000002776         0.80000000000000004441         7.6502180442084011247e-05     
0.050000000000000002776         0.82500000000000006661         8.9046528225500409803e-05     
0.050000000000000002776         0.85000000000000008882         0.00010483757368828783285     
0.050000000000000002776         0.875                          0.00012418685418302821688     
0.050000000000000002776         0.9000000000000000222          0.00014712495333468744718     
0.050000000000000002776         0.92500000000000004441         0.00017316748084761357518     
0.050000000000000002776         0.95000000000000006661         0.00020098708586924196595     
0.050000000000000002776         0.97500000000000008882         0.00022799034299914033852     
0.075000000000000011102         0                              0                             
0.075000000000000011102         0.025000000000000001388        2.7764963635545925058e-05     
0.075000000000000011102         0.050000000000000002776        4.8551963371279427406e-05     
0.075000000000000011102         0.075000000000000011102        6.3483705491584885294e-05     
0.075000000000000011102         0.10000000000000000555         7.369574483018226374e-05      
0.075000000000000011102         0.125                          8.0223564773218569712e-05     
0.075000000000000011102         0.1500000000000000222          8.3963402627285077529e-05     
0.075000000000000011102         0.17500000000000001665         8.5662355604920747965e-05     
0.075000000000000011102         0.2000000000000000111          8.5922835613594372717e-05     
0.075000000000000011102         0.22500000000000000555         8.5215531128390864524e-05     
0.075000000000000011102         0.25                           8.3897159817603039755e-05     
0.075000000000000011102         0.2750000000000000222          8.2230094288648913903e-05     
0.075000000000000011102         0.30000000000000004441         8.0401689636522277738e-05     
0.075000000000000011102         0.3250000000000000111          7.8541919640962021276e-05     
0.075000000000000011102         0.35000000000000003331         7.6738622196037553636e-05     
0.075000000000000011102         0.375                          7.5050186611580471663e-05     
0.075000000000000011102         0.4000000000000000222          7.3515870451457132617e-05     
0.075000000000000011102         0.42500000000000004441         7.2164133815499909019e-05     
0.075000000000000011102         0.4500000000000000111          7.1019466446164969398e-05     
0.075000000000000011102         0.47500000000000003331         7.0108199847096486224e-05     
0.075000000000000011102         0.5                            6.9463771628752724041e-05     
0.075000000000000011102         0.5250000000000000222          6.9131870807925821509e-05     
0.075000000000000011102         0.55000000000000004441         6.9175842347668492494e-05     
0.075000000000000011102         0.57500000000000006661         6.9682672345638962952e-05     
0.075000000000000011102         0.60000000000000008882         7.0769798631298286296e-05     
0.075000000000000011102         0.625                          7.259286768013240021e-05      
0.075000000000000011102         0.6500000000000000222          7.535435998251571732e-05      
0.075000000000000011102         0.67500000000000004441         7.9312674909459701666e-05     
0.075000000000000011102         0.70000000000000006661         8.4790736619932971507e-05     
0.075000000000000011102         0.72500000000000008882         9.2182371874249824373e-05     
0.075000000000000011102         0.75                           0.00010195350842923112111     
0.075000000000000011102         0.7750000000000000222          0.00011463355212382175807     
0.075000000000000011102         0.80000000000000004441         0.00013079002136162642955     
0.075000000000000011102         0.82500000000000006661         0.00015097663085539281269     
0.075000000000000011102         0.85000000000000008882         0.0001756416419904649473      
0.075000000000000011102         0.875                          0.00020497984769263233318     
0.075000000000000011102         0.9000000000000000222          0.00023870898612732283084     
0.075000000000000011102         0.92500000000000004441         0.00027575148705594187959     
0.075000000000000011102         0.95000000000000006661         0.00031380837133121453064     
0.075000000000000011102         0.97500000000000008882         0.00034882857422524615743     
0.10000000000000000555          0                              0                             
0.10000000000000000555          0.025000000000000001388        3.2991267776338872864e-05     
0.10000000000000000555          0.050000000000000002776        5.8749005710678758874e-05     
0.10000000000000000555          0.075000000000000011102        7.8099045003998668335e-05     
0.10000000000000000555          0.10000000000000000555         9.201957365001511846e-05      
0.10000000000000000555          0.125                          0.0001015078402510916078      
0.10000000000000000555          0.1500000000000000222          0.00010749978222834855046     
0.10000000000000000555          0.17500000000000001665         0.00011082606663403993252     
0.10000000000000000555          0.2000000000000000111          0.0001121925269191859087      
0.10000000000000000555          0.22500000000000000555         0.00011217716033073976689     
0.10000000000000000555          0.25                           0.00011123798387613348382     
0.10000000000000000555          0.2750000000000000222          0.00010972728158398226128     
0.10000000000000000555          0.30000000000000004441         0.00010790880586086792903     
0.10000000000000000555          0.3250000000000000111          0.00010597548647184318327     
0.10000000000000000555          0.35000000000000003331         0.00010406610436519692087     
0.10000000000000000555          0.375                          0.00010228013472413088891     
0.10000000000000000555          0.4000000000000000222          0.00010069051869843193003     
0.10000000000000000555          0.42500000000000004441         9.9354494036640872423e-05     
0.10000000000000000555          0.4500000000000000111          9.8322829578778581094e-05     
0.10000000000000000555          0.47500000000000003331         9.7647913440024325382e-05     
0.10000000000000000555          0.5                            9.7391169649574393929e-05     
0.10000000000000000555          0.5250000000000000222          9.7630260128545032217e-05     
0.10000000000000000555          0.55000000000000004441         9.846647059585933448e-05      
0.10000000000000000555          0.57500000000000006661         0.00010003259191471158829     
0.10000000000000000555          0.60000000000000008882         0.0001025014757556341749      
0.10000000000000000555          0.625                          0.00010609523103366491625     
0.10000000000000000555          0.6500000000000000222          0.00011109471291836925388     
0.10000000000000000555          0.67500000000000004441         0.00011784846496110112923     
0.10000000000000000555          0.70000000000000006661         0.00012677955366280357907     
0.10000000000000000555          0.72500000000000008882         0.00013838770254470666998     
0.10000000000000000555          0.75                           0.0001532427035855210562      
0.10000000000000000555          0.7750000000000000222          0.00017196319811474403139     
0.10000000000000000555          0.80000000000000004441         0.00019517253401724055095     
0.10000000000000000555          0.82500000000000006661         0.00022342057078583721363     
0.10000000000000000555          0.85000000000000008882         0.00025705721143909343596     
0.10000000000000000555          0.875                          0.00029604054015175407244     
0.10000000000000000555          0.9000000000000000222          0.00033966064601198553419     
0.10000000000000000555          0.92500000000000004441         0.00038616110177325246866     
0.10000000000000000555          0.95000000000000006661         0.00043224632381200223108     
0.10000000000000000555          0.97500000000000008882         0.00047247893179913624806     
0.125                           0                              0                             
0.125                           0.025000000000000001388        3.7383277743385789904e-05     
0.125                           0.050000000000000002776        6.7453751245505344514e-05     
0.125                           0.075000000000000011102        9.0831494897747333539e-05     
0.125                           0.10000000000000000555         0.0001083385866955666188      
0.125                           0.125                          0.00012088544568178427596     
0.125                           0.1500000000000000222          0.00012938416579810763096     
0.125                           0.17500000000000001665         0.00013468913358694045712     
0.125                           0.2000000000000000111          0.00013756117137564416453     
0.125                           0.22500000000000000555         0.00013865050342931617422     
0.125                           0.25                           0.0001384938093049736807      
0.125                           0.2750000000000000222          0.00013752095682861842363     
0.125                           0.30000000000000004441         0.00013606761019002711066     
0.125                           0.3250000000000000111          0.0001343907028950042104      
0.125                           0.35000000000000003331         0.00013268462208571030203     
0.125                           0.375                          0.00013109674828903905563     
0.125                           0.4000000000000000222          0.00012974165466661524704     
0.125                           0.42500000000000004441         0.00012871376000989087629     
0.125                           0.4500000000000000111          0.00012809855619866361565     
0.125                           0.47500000000000003331         0.00012798272196201665452     
0.125                           0.5                            0.00012846351810535949767     
0.125                           0.5250000000000000222          0.00012965786676022439394     
0.125                           0.55000000000000004441         0.00013171146071577766179     
0.125                           0.57500000000000006661         0.00013480812984978385316     
0.125                           0.60000000000000008882         0.00013917950313202531731     
0.125                           0.625                          0.00014511471426326139067     
0.125                           0.6500000000000000222          0.00015296947554199746833     
0.125                           0.67500000000000004441         0.0001631732307683098071      
0.125                           0.70000000000000006661         0.00017623225098928330112     
0.125                           0.72500000000000008882         0.00019272538744274925193     
0.125                           0.75                           0.00021328769874706665632     
0.125                           0.7750000000000000222          0.00023857528746518141816     
0.125                           0.80000000000000004441         0.00026920241363903585352     
0.125                           0.82500000000000006661         0.00030563934691163474611     
0.125                           0.85000000000000008882         0.0003480566435012377724      
0.125                           0.875                          0.00039609892088821041511     
0.125                           0.9000000000000000222          0.00044856943153193107321     
0.125                           0.92500000000000004441         0.00050300702539640695932     
0.125                           0.95000000000000006661         0.00055514161110625792617     
0.125                           0.97500000000000008882         0.00059822665525199880676     
0.1500000000000000222           0                              0                             
0.1500000000000000222           0.025000000000000001388        4.1201435571736055863e-05     
0.1500000000000000222           0.050000000000000002776        7.5104310995222078873e-05     
0.1500000000000000222           0.075000000000000011102        0.00010218844249720859807     
0.1500000000000000222           0.10000000000000000555         0.00012314447663741567851     
0.1500000000000000222           0.125                          0.00013878531896471812956     
0.1500000000000000222           0.1500000000000000222          0.00014996803850575446404     
0.1500000000000000222           0.17500000000000001665         0.00015753223604764166055     
0.1500000000000000222           0.2000000000000000111          0.00016225654871182548789     
0.1500000000000000222           0.22500000000000000555         0.00016483223700558546909     
0.1500000000000000222           0.25                           0.00016585125796875210824     
0.1500000000000000222           0.2750000000000000222          0.00016580552702905038132     
0.1500000000000000222           0.30000000000000004441         0.00016509399446373862475     
0.1500000000000000222           0.3250000000000000111          0.00016403452331803514141     
0.1500000000000000222           0.35000000000000003331         0.00016287816506044272558     
0.1500000000000000222           0.375                          0.00016182411985732336746     
0.1500000000000000222           0.4000000000000000222          0.00016103431642466858875     
0.1500000000000000222           0.42500000000000004441         0.00016064708048624254388     
0.1500000000000000222           0.4500000000000000111          0.00016078975165023656757     
0.1500000000000000222           0.47500000000000003331         0.00016159036297969109341     
0.1500000000000000222           0.5                            0.000163188630372124166       
0.1500000000000000222           0.5250000000000000222          0.00016574653013279316838     
0.1500000000000000222           0.55000000000000004441         0.00016945868869244762323     
0.1500000000000000222           0.57500000000000006661         0.00017456266604298775746     
0.1500000000000000222           0.60000000000000008882         0.00018134898202237792475     
0.1500000000000000222           0.625                          0.00019017037854607288239     
0.1500000000000000222           0.6500000000000000222          0.00020144931619259232036     
0.1500000000000000222           0.67500000000000004441         0.00021568202172250749982     
0.1500000000000000222           0.70000000000000006661         0.00023343649688456480362     
0.1500000000000000222           0.72500000000000008882         0.00025534074497879366561     
0.1500000000000000222           0.75                           0.00028205601501229971007     
0.1500000000000000222           0.7750000000000000222          0.0003142281031081051168      
0.1500000000000000222           0.80000000000000004441         0.00035240765441257870805     
0.1500000000000000222           0.82500000000000006661         0.00039692798416224306379     
0.1500000000000000222           0.85000000000000008882         0.00044772622668931560952     
0.1500000000000000222           0.875                          0.00050409077231794441332     
0.1500000000000000222           0.9000000000000000222          0.00056431537417300781101     
0.1500000000000000222           0.92500000000000004441         0.00062523890820842531468     
0.1500000000000000222           0.95000000000000006661         0.00068165141293108355569     
0.1500000000000000222           0.97500000000000008882         0.00072555519226380482678     
0.17500000000000001665          0                              0                             
0.17500000000000001665          0.025000000000000001388        4.4615842924144999415e-05     
0.17500000000000001665          0.050000000000000002776        8.2002450854767872102e-05     
0.17500000000000001665          0.075000000000000011102        0.00011254424015949560101     
0.17500000000000001665          0.10000000000000000555         0.00013682763923861251953     
0.17500000000000001665          0.125                          0.00015557381020392391235     
0.17500000000000001665          0.1500000000000000222          0.00016957328538236282611     
0.17500000000000001665          0.17500000000000001665         0.00017962899575540980379     
0.17500000000000001665          0.2000000000000000111          0.00018651157955473784966     
0.17500000000000001665          0.22500000000000000555         0.0001909283353136448369      
0.17500000000000001665          0.25                           0.00019350521492822458924     
0.17500000000000001665          0.2750000000000000222          0.00019477996928296548163     
0.17500000000000001665          0.30000000000000004441         0.00019520393321759144101     
0.17500000000000001665          0.3250000000000000111          0.0001951498491445935457      
0.17500000000000001665          0.35000000000000003331         0.00019492341313043226592     
0.17500000000000001665          0.375                          0.00019477671397227780403     
0.17500000000000001665          0.4000000000000000222          0.00019492227986050991717     
0.17500000000000001665          0.42500000000000004441         0.00019554694755963275554     
0.17500000000000001665          0.4500000000000000111          0.00019682517090657825065     
0.17500000000000001665          0.47500000000000003331         0.00019893166632423131546     
0.17500000000000001665          0.5                            0.00020205345261992135875     
0.17500000000000001665          0.5250000000000000222          0.00020640139368821586174     
0.17500000000000001665          0.55000000000000004441         0.00021222129570119818709     
0.17500000000000001665          0.57500000000000006661         0.00021980445620140010021     
0.17500000000000001665          0.60000000000000008882         0.00022949729889787384707     
0.17500000000000001665          0.625                          0.00024170933836797914296     
0.17500000000000001665          0.6500000000000000222          0.00025691819061202103569     
0.17500000000000001665          0.67500000000000004441         0.00027566964580993946754     
0.17500000000000001665          0.70000000000000006661         0.00029856993252841412811     
0.17500000000000001665          0.72500000000000008882         0.00032626620117026661205     
0.17500000000000001665          0.75                           0.00035940990591853960723     
0.17500000000000001665          0.7750000000000000222          0.00039859613425030637757     
0.17500000000000001665          0.80000000000000004441         0.00044426994267854347243     
0.17500000000000001665          0.82500000000000006661         0.00049658831986687523852     
0.17500000000000001665          0.85000000000000008882         0.00055522340182823093357     
0.17500000000000001665          0.875                          0.00061908897207230140225     
0.17500000000000001665          0.9000000000000000222          0.00068596829817413329522     