TITLE = 'DEM DATA | DEM DATA | DEM DATA | DEM DATA'
VARIABLES = 'X' 'Y' 'E' 
ZONE T='SubZone'
I=20 J=20 K=1 ZONETYPE=Ordered
DATAPACKING=POINT
DT=(SINGLE SINGLE SINGLE )
0                               0                              0                             
0                               0.050000000000000002776        0                             
0                               0.10000000000000000555         0                             
0                               0.1500000000000000222          0                             
0                               0.2000000000000000111          0                             
0                               0.25                           0                             
0                               0.30000000000000004441         0                             
0                               0.35000000000000003331         0                             
0                               0.4000000000000000222          0                             
0                               0.4500000000000000111          0                             
0                               0.5                            0                             
0                               0.55000000000000004441         0                             
0                               0.60000000000000008882         0                             
0                               0.6500000000000000222          0                             
0                               0.70000000000000006661         0                             
0                               0.75                           0                             
0                               0.80000000000000004441         0                             
0                               0.85000000000000008882         0                             
0                               0.9000000000000000222          0                             
0                               0.95000000000000006661         0                             
0.050000000000000002776         0                              0                             
0.050000000000000002776         0.050000000000000002776        7.924598399933202586e-05      
0.050000000000000002776         0.10000000000000000555         0.00012158886261581791643     
0.050000000000000002776         0.1500000000000000222          0.00014261993510911175065     
0.050000000000000002776         0.2000000000000000111          0.00015119105343797123453     
0.050000000000000002776         0.25                           0.00015285730058334223713     
0.050000000000000002776         0.30000000000000004441         0.00015113139849454171326     
0.050000000000000002776         0.35000000000000003331         0.00014819575473068447025     
0.050000000000000002776         0.4000000000000000222          0.00014540484934300046405     
0.050000000000000002776         0.4500000000000000111          0.00014365912874580999414     
0.050000000000000002776         0.5                            0.00014368759547767062656     
0.050000000000000002776         0.55000000000000004441         0.00014626878104628815436     
0.050000000000000002776         0.60000000000000008882         0.00015241280173072802029     
0.050000000000000002776         0.6500000000000000222          0.00016351243721057784342     
0.050000000000000002776         0.70000000000000006661         0.00018144344363690834143     
0.050000000000000002776         0.75                           0.00020854543564352567842     
0.050000000000000002776         0.80000000000000004441         0.00024733356969530717606     
0.050000000000000002776         0.85000000000000008882         0.00029967074722847542034     
0.050000000000000002776         0.9000000000000000222          0.00036498951285923730836     
0.050000000000000002776         0.95000000000000006661         0.00043710600642477004385     
0.10000000000000000555          0                              0                             
0.10000000000000000555          0.050000000000000002776        0.0001308554691878960341      
0.10000000000000000555          0.10000000000000000555         0.00021339563076527845453     
0.10000000000000000555          0.1500000000000000222          0.00026166532369176209727     
0.10000000000000000555          0.2000000000000000111          0.00028721755367899781675     
0.10000000000000000555          0.25                           0.00029879022531420496023     
0.10000000000000000555          0.30000000000000004441         0.00030267507586723141344     
0.10000000000000000555          0.35000000000000003331         0.0003032504195670249203      
0.10000000000000000555          0.4000000000000000222          0.00030354768880647142737     
0.10000000000000000555          0.4500000000000000111          0.00030578186772989290887     
0.10000000000000000555          0.5                            0.00031181307817407244443     
0.10000000000000000555          0.55000000000000004441         0.00032353244888438936755     
0.10000000000000000555          0.60000000000000008882         0.00034317108355308434398     
0.10000000000000000555          0.6500000000000000222          0.00037351186547729398058     
0.10000000000000000555          0.70000000000000006661         0.00041793583238214360165     
0.10000000000000000555          0.75                           0.00048015173015647505395     
0.10000000000000000555          0.80000000000000004441         0.00056333436750288790051     
0.10000000000000000555          0.85000000000000008882         0.00066824383978003609741     
0.10000000000000000555          0.9000000000000000222          0.00078976493135218817088     
0.10000000000000000555          0.95000000000000006661         0.00091133768129836312255     
0.1500000000000000222           0                              0                             
0.1500000000000000222           0.050000000000000002776        0.00016925982024562635786     
0.1500000000000000222           0.10000000000000000555         0.0002868112265759226176      
0.1500000000000000222           0.1500000000000000222          0.00036369603412778062079     
0.1500000000000000222           0.2000000000000000111          0.00041110666814736518404     
0.1500000000000000222           0.25                           0.00043887156380795211419     
0.1500000000000000222           0.30000000000000004441         0.00045493488455483621635     
0.1500000000000000222           0.35000000000000003331         0.00046541066730321212219     
0.1500000000000000222           0.4000000000000000222          0.00047494161217453978452     
0.1500000000000000222           0.4500000000000000111          0.00048718540820891220733     
0.1500000000000000222           0.5                            0.00050531648438556509007     
0.1500000000000000222           0.55000000000000004441         0.00053247539759215811728     
0.1500000000000000222           0.60000000000000008882         0.00057211462248352162874     
0.1500000000000000222           0.6500000000000000222          0.00062817235234580159897     
0.1500000000000000222           0.70000000000000006661         0.00070495179592078294206     
0.1500000000000000222           0.75                           0.00080649126626419764818     
0.1500000000000000222           0.80000000000000004441         0.00093508457915669751515     
0.1500000000000000222           0.85000000000000008882         0.0010884722416042436066      
0.1500000000000000222           0.9000000000000000222          0.0012551278123904552331      
0.1500000000000000222           0.95000000000000006661         0.0014071356909741705721      
0.2000000000000000111           0                              0                             
0.2000000000000000111           0.050000000000000002776        0.00020043871932373669154     
0.2000000000000000111           0.10000000000000000555         0.00034891479372944900206     
0.2000000000000000111           0.1500000000000000222          0.00045419030911753033308     
0.2000000000000000111           0.2000000000000000111          0.0005262670009980041641      
0.2000000000000000111           0.25                           0.00057490801008119873927     
0.2000000000000000111           0.30000000000000004441         0.00060877787420277051922     
0.2000000000000000111           0.35000000000000003331         0.00063513922626556862383     
0.2000000000000000111           0.4000000000000000222          0.00065995215781766702889     
0.2000000000000000111           0.4500000000000000111          0.00068821069110369670341     
0.2000000000000000111           0.5                            0.00072437383842105518283     
0.2000000000000000111           0.55000000000000004441         0.00077277766339189923883     
0.2000000000000000111           0.60000000000000008882         0.00083792807143212577614     
0.2000000000000000111           0.6500000000000000222          0.00092455836775928723625     
0.2000000000000000111           0.70000000000000006661         0.0010372851702178387256      
0.2000000000000000111           0.75                           0.001179611139423109023       
0.2000000000000000111           0.80000000000000004441         0.0013519089805054118614      
0.2000000000000000111           0.85000000000000008882         0.0015478939329636176581      
0.2000000000000000111           0.9000000000000000222          0.0017489893250763888233      
0.2000000000000000111           0.95000000000000006661         0.0019160006597962464525      
0.25                            0                              0                             
0.25                            0.050000000000000002776        0.00022740756374028947562     
0.25                            0.10000000000000000555         0.00040407478895043702494     
0.25                            0.1500000000000000222          0.00053725906291024472239     
0.25                            0.2000000000000000111          0.00063576732070558250598     
0.25                            0.25                           0.00070882238336356095942     
0.25                            0.30000000000000004441         0.00076521134244678101766     
0.25                            0.35000000000000003331         0.00081282489450762440697     
0.25                            0.4000000000000000222          0.00085856176390874949789     
0.25                            0.4500000000000000111          0.00090849600464681934398     
0.25                            0.5                            0.00096817787000746946546     
0.25                            0.55000000000000004441         0.0010429373015246046208      
0.25                            0.60000000000000008882         0.0011380583521696241434      
0.25                            0.6500000000000000222          0.0012586749659118101619      
0.25                            0.70000000000000006661         0.0014091935165565505628      
0.25                            0.75                           0.0015919711069876107956      
0.25                            0.80000000000000004441         0.0018048689555116848027      
0.25                            0.85000000000000008882         0.0020371579491160751729      
0.25                            0.9000000000000000222          0.0022630935851977174167      
0.25                            0.95000000000000006661         0.0024323659409715148172      
0.30000000000000004441          0                              0                             
0.30000000000000004441          0.050000000000000002776        0.0002519149707345125222      
0.30000000000000004441          0.10000000000000000555         0.00045510128286196938063     
0.30000000000000004441          0.1500000000000000222          0.00061588003265633517458     
0.30000000000000004441          0.2000000000000000111          0.00074209049554618822242     
0.30000000000000004441          0.25                           0.0008422973804658173691      
0.30000000000000004441          0.30000000000000004441         0.00092508442003902402462     
0.30000000000000004441          0.35000000000000003331         0.00099857758452226441648     
0.30000000000000004441          0.4000000000000000222          0.0010702416343155718437      
0.30000000000000004441          0.4500000000000000111          0.001146906119677160163       
0.30000000000000004441          0.5                            0.0012349221705525437187      
0.30000000000000004441          0.55000000000000004441         0.0013403240949270145421      
0.30000000000000004441          0.60000000000000008882         0.0014688531095488066569      
0.30000000000000004441          0.6500000000000000222          0.0016256771275173775848      
0.30000000000000004441          0.70000000000000006661         0.0018145967312721555942      
0.30000000000000004441          0.75                           0.0020364514087443108536      
0.30000000000000004441          0.80000000000000004441         0.0022863177640006782099      
0.30000000000000004441          0.85000000000000008882         0.0025489071313744560143      
0.30000000000000004441          0.9000000000000000222          0.0027913234931593589039      
0.30000000000000004441          0.95000000000000006661         0.0029520968744816133977      
0.35000000000000003331          0                              0                             
0.35000000000000003331          0.050000000000000002776        0.00027507390552794497296     
0.35000000000000003331          0.10000000000000000555         0.00050387977090071700559     
0.35000000000000003331          0.1500000000000000222          0.0006921902457330819658      
0.35000000000000003331          0.2000000000000000111          0.00084712909561601712483     
0.35000000000000003331          0.25                           0.00097664130022945272458     
0.35000000000000003331          0.30000000000000004441         0.0010889559082156718972      
0.35000000000000003331          0.35000000000000003331         0.0011921636929903556279      
0.35000000000000003331          0.4000000000000000222          0.0012939739418673656957      
0.35000000000000003331          0.4500000000000000111          0.0014016414990054570922      
0.35000000000000003331          0.5                            0.0015219946283240304297      
0.35000000000000003331          0.55000000000000004441         0.0016614534476160347509      
0.35000000000000003331          0.60000000000000008882         0.0018258999916833662525      
0.35000000000000003331          0.6500000000000000222          0.002020230309557335957       
0.35000000000000003331          0.70000000000000006661         0.0022473699587000073308      
0.35000000000000003331          0.75                           0.0025064469440101433406      
0.35000000000000003331          0.80000000000000004441         0.0027896645310863110723      
0.35000000000000003331          0.85000000000000008882         0.0030771724095810526478      
0.35000000000000003331          0.9000000000000000222          0.0033288919978511355424      
0.35000000000000003331          0.95000000000000006661         0.0034718824740040954424      
0.4000000000000000222           0                              0                             
0.4000000000000000222           0.050000000000000002776        0.00029763924331005497947     
0.4000000000000000222           0.10000000000000000555         0.00055172209590215182118     
0.4000000000000000222           0.1500000000000000222          0.00076772978008587955401     
0.4000000000000000222           0.2000000000000000111          0.0009522845252594169807      
0.4000000000000000222           0.25                           0.0011128029779565729029      
0.4000000000000000222           0.30000000000000004441         0.0012571065311022255884      
0.4000000000000000222           0.35000000000000003331         0.0013930762387732720242      
0.4000000000000000222           0.4000000000000000222          0.0015284112813489514338      
0.4000000000000000222           0.4500000000000000111          0.0016704963465938860168      
0.4000000000000000222           0.5                            0.0018263289486160072528      
0.4000000000000000222           0.55000000000000004441         0.0020024137771552652509      
0.4000000000000000222           0.60000000000000008882         0.0022044956498068479789      
0.4000000000000000222           0.6500000000000000222          0.0024369640788202140413      
0.4000000000000000222           0.70000000000000006661         0.0027017021933535279032      
0.4000000000000000222           0.75                           0.0029960440350167427681      
0.4000000000000000222           0.80000000000000004441         0.0033093116665996458181      
0.4000000000000000222           0.85000000000000008882         0.0036170914049122870892      
0.4000000000000000222           0.9000000000000000222          0.0038719702371914355155      
0.4000000000000000222           0.95000000000000006661         0.0039889737072038577992      
0.4500000000000000111           0                              0                             
0.4500000000000000111           0.050000000000000002776        0.00032014897280308041161     
0.4500000000000000111           0.10000000000000000555         0.00059957421515077768959     
0.4500000000000000111           0.1500000000000000222          0.00084362986511199444806     
0.4500000000000000111           0.2000000000000000111          0.0010585987068068014594      
0.4500000000000000111           0.25                           0.0012514655744275682281      
0.4500000000000000111           0.30000000000000004441         0.0014296407765221896824      
0.4500000000000000111           0.35000000000000003331         0.0016006899736173973992      
0.4500000000000000111           0.4000000000000000222          0.0017721145593516673955      
0.4500000000000000111           0.4500000000000000111          0.0019511893313639561143      
0.4500000000000000111           0.5                            0.002144819859006164009       
0.4500000000000000111           0.55000000000000004441         0.0023593406262079064106      
0.4500000000000000111           0.60000000000000008882         0.0026001363388494791451      
0.4500000000000000111           0.6500000000000000222          0.0028709219948097608466      
0.4500000000000000111           0.70000000000000006661         0.0031724414707561265914      
0.4500000000000000111           0.75                           0.0035002073499272867707      
0.4500000000000000111           0.80000000000000004441         0.0038406645135167227778      
0.4500000000000000111           0.85000000000000008882         0.0041647766771073513326      
0.4500000000000000111           0.9000000000000000222          0.0044175040423386491284      
0.4500000000000000111           0.95000000000000006661         0.0045010572494563749757      
0.5                             0                              0                             
0.5                             0.050000000000000002776        0.00034300345726068215413     
0.5                             0.10000000000000000555         0.00064814522262746088188     
0.5                             0.1500000000000000222          0.00092075113924505735952     
0.5                             0.2000000000000000111          0.0011668777524074247509      
0.5                             0.25                           0.0013931598880352336067      
0.5                             0.30000000000000004441         0.0016066144549702343625      
0.5                             0.35000000000000003331         0.0018144328503548745601      
0.5                             0.4000000000000000222          0.0020237901096975541293      
0.5                             0.4500000000000000111          0.0022416729829208836833      
0.5                             0.5                            0.0024746939846687077136      
0.5                             0.55000000000000004441         0.0027288214439376012876      
0.5                             0.60000000000000008882         0.0030089152441117317238      
0.5                             0.6500000000000000222          0.0033179024783480670635      
0.5                             0.70000000000000006661         0.0036553331209971950955      
0.5                             0.75                           0.0040148865388183185843      
0.5                             0.80000000000000004441         0.0043801085160561914478      
0.5                             0.85000000000000008882         0.0047172027573219033059      
0.5                             0.9000000000000000222          0.004963078078350502409       
0.5                             0.95000000000000006661         0.0050061672029648729421      
0.55000000000000004441          0                              0                             
0.55000000000000004441          0.050000000000000002776        0.00036650939475690869074     
0.55000000000000004441          0.10000000000000000555         0.00069798325402192773481     
0.55000000000000004441          0.1500000000000000222          0.00099977241115078996359     
0.55000000000000004441          0.2000000000000000111          0.0012777795492129317978      
0.55000000000000004441          0.25                           0.001538350013152722795       
0.55000000000000004441          0.30000000000000004441         0.0017881301463191778822      
0.55000000000000004441          0.35000000000000003331         0.0020339079918554325843      
0.55000000000000004441          0.4000000000000000222          0.0022824509803005543773      
0.55000000000000004441          0.4500000000000000111          0.0025403364202014611095      
0.55000000000000004441          0.5                            0.002813742342992808787       
0.55000000000000004441          0.55000000000000004441         0.003108132879414027272       
0.55000000000000004441          0.60000000000000008882         0.0034277302308909352035      
0.55000000000000004441          0.6500000000000000222          0.0037746004974703595281      
0.55000000000000004441          0.70000000000000006661         0.0041470666039162829009      
0.55000000000000004441          0.75                           0.0045369578808893695765      
0.55000000000000004441          0.80000000000000004441         0.0049248616410806356214      
0.55000000000000004441          0.85000000000000008882         0.0052720121325351421149      
0.55000000000000004441          0.9000000000000000222          0.0055067354562674530882      
0.55000000000000004441          0.95000000000000006661         0.0055025777148580701237      
0.60000000000000008882          0                              0                             
0.60000000000000008882          0.050000000000000002776        0.00039089595306451840884     
0.60000000000000008882          0.10000000000000000555         0.00074950342875035325108     
0.60000000000000008882          0.1500000000000000222          0.0010812218043270149792      
0.60000000000000008882          0.2000000000000000111          0.0013918399443342277522      
0.60000000000000008882          0.25                           0.0016874516386378157762      
0.60000000000000008882          0.30000000000000004441         0.0019743510111733808543      
0.60000000000000008882          0.35000000000000003331         0.0022589096301701694358      
0.60000000000000008882          0.4000000000000000222          0.0025474395737510313609      
0.60000000000000008882          0.4500000000000000111          0.0028460324004428994016      
0.60000000000000008882          0.5                            0.0031603400903916778475      
0.60000000000000008882          0.55000000000000004441         0.0034952326396400223985      
0.60000000000000008882          0.60000000000000008882         0.0038542221186357306095      
0.60000000000000008882          0.6500000000000000222          0.004238468033477715835       
0.60000000000000008882          0.70000000000000006661         0.0046450438079004285896      
0.60000000000000008882          0.75                           0.0050639043515570136833      
0.60000000000000008882          0.80000000000000004441         0.0054725944475959575897      
0.60000000000000008882          0.85000000000000008882         0.0058271286253881449113      
0.60000000000000008882          0.9000000000000000222          0.0060466557796410302927      
0.60000000000000008882          0.95000000000000006661         0.005988618792742039787       
0.6500000000000000222           0                              0                             
0.6500000000000000222           0.050000000000000002776        0.00041629891142491715073     
0.6500000000000000222           0.10000000000000000555         0.00080295640800898127054     
0.6500000000000000222           0.1500000000000000222          0.0011654275183015094797      
0.6500000000000000222           0.2000000000000000111          0.0015094015298100504907      
0.6500000000000000222           0.25                           0.0018407349223119595649      
0.6500000000000000222           0.30000000000000004441         0.002165375444266981475       
0.6500000000000000222           0.35000000000000003331         0.002489268112665810051       
0.6500000000000000222           0.4000000000000000222          0.002818240018924278445       
0.6500000000000000222           0.4500000000000000111          0.0031578497839130914571      
0.6500000000000000222           0.5                            0.0035131659810687665413      
0.6500000000000000222           0.55000000000000004441         0.0038884076620400165325      
0.6500000000000000222           0.60000000000000008882         0.0042863312986880508504      
0.6500000000000000222           0.6500000000000000222          0.0047071625153927154628      
0.6500000000000000222           0.70000000000000006661         0.0051467139387630922442      
0.6500000000000000222           0.75                           0.0055930519303202252956      
0.6500000000000000222           0.80000000000000004441         0.006020612605432518194       
0.6500000000000000222           0.85000000000000008882         0.0063799679848504098345      
0.6500000000000000222           0.9000000000000000222          0.0065805109665859617962      
0.6500000000000000222           0.95000000000000006661         0.0064623081383630154306      
0.70000000000000006661          0                              0                             
0.70000000000000006661          0.050000000000000002776        0.00044269489606874046217     
0.70000000000000006661          0.10000000000000000555         0.00085830175870627023471     
0.70000000000000006661          0.1500000000000000222          0.0012523339565060354062      
0.70000000000000006661          0.2000000000000000111          0.001630372008527336547       
0.70000000000000006661          0.25                           0.0019980206509131459569      
0.70000000000000006661          0.30000000000000004441         0.0023608639509817841429      
0.70000000000000006661          0.35000000000000003331         0.0027243984039484470117      
0.70000000000000006661          0.4000000000000000222          0.0030939367070379475422      
0.70000000000000006661          0.4500000000000000111          0.0034744669995510069072      
0.70000000000000006661          0.5                            0.003870431601068036187       
0.70000000000000006661          0.55000000000000004441         0.0042853567147003168714      
0.70000000000000006661          0.60000000000000008882         0.004721210863717795192       
0.70000000000000006661          0.6500000000000000222          0.0051772725707026623354      
0.70000000000000006661          0.70000000000000006661         0.0056481078361940717514      
0.70000000000000006661          0.75                           0.0061199365622588430824      
0.70000000000000006661          0.80000000000000004441         0.0065641301201566637502      
0.70000000000000006661          0.85000000000000008882         0.0069257661707153861386      
0.70000000000000006661          0.9000000000000000222          0.0071040854316086754494      
0.70000000000000006661          0.95000000000000006661         0.006920551646769634857       
0.75                            0                              0                             
0.75                            0.050000000000000002776        0.0004697444661545535638      
0.75                            0.10000000000000000555         0.0009149053549002417185      
0.75                            0.1500000000000000222          0.0013410636028878819559      
0.75                            0.2000000000000000111          0.0017536527130446177836      
0.75                            0.25                           0.0021579685731549780314      
0.75                            0.30000000000000004441         0.0025591730587604111236      
0.75                            0.35000000000000003331         0.0029622595538989493491      
0.75                            0.4000000000000000222          0.003371974303411517937       
0.75                            0.4500000000000000111          0.0037926828172416549023      
0.75                            0.5                            0.0042281487002380213625      
0.75                            0.55000000000000004441         0.0046811569334157532296      
0.75                            0.60000000000000008882         0.0051528549084847163897      
0.75                            0.6500000000000000222          0.0056415768681832290099      
0.75                            0.70000000000000006661         0.0061407149905219338137      
0.75                            0.75                           0.0066348310497359452853      
0.75                            0.80000000000000004441         0.0070925688071732384543      