TITLE = 'DEM DATA | DEM DATA | DEM DATA | DEM DATA'
VARIABLES = 'X' 'Y' 'E' 
ZONE T='SubZone'
I=80 J=80 K=1 ZONETYPE=Ordered
DATAPACKING=POINT
DT=(SINGLE SINGLE SINGLE )
0                               0                              0                             
0                               0.012500000000000000694        0                             
0                               0.025000000000000001388        0                             
0                               0.037500000000000005551        0                             
0                               0.050000000000000002776        0                             
0                               0.0625                         0                             
0                               0.075000000000000011102        0                             
0                               0.087500000000000008327        0                             
0                               0.10000000000000000555         0                             
0                               0.11250000000000000278         0                             
0                               0.125                          0                             
0                               0.1375000000000000111          0                             
0                               0.1500000000000000222          0                             
0                               0.16250000000000000555         0                             
0                               0.17500000000000001665         0                             
0                               0.1875                         0                             
0                               0.2000000000000000111          0                             
0                               0.2125000000000000222          0                             
0                               0.22500000000000000555         0                             
0                               0.23750000000000001665         0                             
0                               0.25                           0                             
0                               0.2625000000000000111          0                             
0                               0.2750000000000000222          0                             
0                               0.28750000000000003331         0                             
0                               0.30000000000000004441         0                             
0                               0.3125                         0                             
0                               0.3250000000000000111          0                             
0                               0.3375000000000000222          0                             
0                               0.35000000000000003331         0                             
0                               0.36250000000000004441         0                             
0                               0.375                          0                             
0                               0.3875000000000000111          0                             
0                               0.4000000000000000222          0                             
0                               0.41250000000000003331         0                             
0                               0.42500000000000004441         0                             
0                               0.4375                         0                             
0                               0.4500000000000000111          0                             
0                               0.4625000000000000222          0                             
0                               0.47500000000000003331         0                             
0                               0.48750000000000004441         0                             
0                               0.5                            0                             
0                               0.51250000000000006661         0                             
0                               0.5250000000000000222          0                             
0                               0.5374999999999999778          0                             
0                               0.55000000000000004441         0                             
0                               0.5625                         0                             
0                               0.57500000000000006661         0                             
0                               0.5875000000000000222          0                             
0                               0.60000000000000008882         0                             
0                               0.61250000000000004441         0                             
0                               0.625                          0                             
0                               0.63750000000000006661         0                             
0                               0.6500000000000000222          0                             
0                               0.66250000000000008882         0                             
0                               0.67500000000000004441         0                             
0                               0.6875                         0                             
0                               0.70000000000000006661         0                             
0                               0.7125000000000000222          0                             
0                               0.72500000000000008882         0                             
0                               0.73750000000000004441         0                             
0                               0.75                           0                             
0                               0.76250000000000006661         0                             
0                               0.7750000000000000222          0                             
0                               0.78750000000000008882         0                             
0                               0.80000000000000004441         0                             
0                               0.8125                         0                             
0                               0.82500000000000006661         0                             
0                               0.8375000000000000222          0                             
0                               0.85000000000000008882         0                             
0                               0.86250000000000004441         0                             
0                               0.875                          0                             
0                               0.88750000000000006661         0                             
0                               0.9000000000000000222          0                             
0                               0.91250000000000008882         0                             
0                               0.92500000000000004441         0                             
0                               0.9375                         0                             
0                               0.95000000000000006661         0                             
0                               0.9625000000000000222          0                             
0                               0.97500000000000008882         0                             
0                               0.98750000000000004441         0                             
0.012500000000000000694         0                              0                             
0.012500000000000000694         0.012500000000000000694        2.2061010573892758657e-06     
0.012500000000000000694         0.025000000000000001388        3.7748158390193964351e-06     
0.012500000000000000694         0.037500000000000005551        4.9254313321256404379e-06     
0.012500000000000000694         0.050000000000000002776        5.7665239505677590159e-06     
0.012500000000000000694         0.0625                         6.3680282955669298417e-06     
0.012500000000000000694         0.075000000000000011102        6.7819260243240364616e-06     
0.012500000000000000694         0.087500000000000008327        7.0493983785890890204e-06     
0.012500000000000000694         0.10000000000000000555         7.2038304641530714889e-06     
0.012500000000000000694         0.11250000000000000278         7.2723854003253762812e-06     
0.012500000000000000694         0.125                          7.2770371217778517803e-06     
0.012500000000000000694         0.1375000000000000111          7.2353749362985553262e-06     
0.012500000000000000694         0.1500000000000000222          7.1612917316166146975e-06     
0.012500000000000000694         0.16250000000000000555         7.0655935999752728094e-06     
0.012500000000000000694         0.17500000000000001665         6.956541787062064941e-06      
0.012500000000000000694         0.1875                         6.8403291615393158054e-06     
0.012500000000000000694         0.2000000000000000111          6.7214923331615494817e-06     
0.012500000000000000694         0.2125000000000000222          6.6032617911382374132e-06     
0.012500000000000000694         0.22500000000000000555         6.4878537446855233384e-06     
0.012500000000000000694         0.23750000000000001665         6.3767092679523074139e-06     
0.012500000000000000694         0.25                           6.270686938814051814e-06      
0.012500000000000000694         0.2625000000000000111          6.1702151812337291403e-06     
0.012500000000000000694         0.2750000000000000222          6.0754115107641837312e-06     
0.012500000000000000694         0.28750000000000003331         5.9861736250166330819e-06     
0.012500000000000000694         0.30000000000000004441         5.9022487615134622274e-06     
0.012500000000000000694         0.3125                         5.8232849584616275251e-06     
0.012500000000000000694         0.3250000000000000111          5.7488691014295767445e-06     
0.012500000000000000694         0.3375000000000000222          5.6785542494885987708e-06     
0.012500000000000000694         0.35000000000000003331         5.6118790814352337293e-06     
0.012500000000000000694         0.36250000000000004441         5.5483816867596402744e-06     
0.012500000000000000694         0.375                          5.4876089834454688798e-06     
0.012500000000000000694         0.3875000000000000111          5.4291232947090151129e-06     
0.012500000000000000694         0.4000000000000000222          5.3725069211196796459e-06     
0.012500000000000000694         0.41250000000000003331         5.3173650484961143547e-06     
0.012500000000000000694         0.42500000000000004441         5.2633283516012596692e-06     
0.012500000000000000694         0.4375                         5.2100547718314516032e-06     
0.012500000000000000694         0.4500000000000000111          5.1572314139214370243e-06     
0.012500000000000000694         0.4625000000000000222          5.1045765867563375195e-06     
0.012500000000000000694         0.47500000000000003331         5.0518419165701544671e-06     
0.012500000000000000694         0.48750000000000004441         4.9988156023417218421e-06     
0.012500000000000000694         0.5                            4.945325385641297089e-06      
0.012500000000000000694         0.51250000000000006661         4.8912438956882908769e-06     
0.012500000000000000694         0.5250000000000000222          4.8364931348743311901e-06     
0.012500000000000000694         0.5374999999999999778          4.781052833857657447e-06      
0.012500000000000000694         0.55000000000000004441         4.7249683536865205724e-06     
0.012500000000000000694         0.5625                         4.6683619285836641666e-06     
0.012500000000000000694         0.57500000000000006661         4.6114463183588583206e-06     
0.012500000000000000694         0.5875000000000000222          4.5545419220527350035e-06     
0.012500000000000000694         0.60000000000000008882         4.498098207017520167e-06      
0.012500000000000000694         0.61250000000000004441         4.4427200058816396222e-06     
0.012500000000000000694         0.625                          4.3892007741686001054e-06     
0.012500000000000000694         0.63750000000000006661         4.3385639820758825635e-06     
0.012500000000000000694         0.6500000000000000222          4.2921143321716925811e-06     
0.012500000000000000694         0.66250000000000008882         4.2515018436883877939e-06     
0.012500000000000000694         0.67500000000000004441         4.2188008713139879546e-06     
0.012500000000000000694         0.6875                         4.1966074768584604726e-06     
0.012500000000000000694         0.70000000000000006661         4.1881588066505770485e-06     
0.012500000000000000694         0.7125000000000000222          4.1974775266684360986e-06     
0.012500000000000000694         0.72500000000000008882         4.2295453788199210976e-06     
0.012500000000000000694         0.73750000000000004441         4.2905079296051695792e-06     
0.012500000000000000694         0.75                           4.3879119602241445364e-06     
0.012500000000000000694         0.76250000000000006661         4.5309733456289080777e-06     
0.012500000000000000694         0.7750000000000000222          4.7308679644864071179e-06     
0.012500000000000000694         0.78750000000000008882         5.0010321941407198665e-06     
0.012500000000000000694         0.80000000000000004441         5.3574453775517838494e-06     
0.012500000000000000694         0.8125                         5.8188518763380159271e-06     
0.012500000000000000694         0.82500000000000006661         6.4068570424513637818e-06     
0.012500000000000000694         0.8375000000000000222          7.145799679753039868e-06      
0.012500000000000000694         0.85000000000000008882         8.0622648745976022155e-06     
0.012500000000000000694         0.86250000000000004441         9.1840511255991685857e-06     
0.012500000000000000694         0.875                          1.0538347032351680355e-05     
0.012500000000000000694         0.88750000000000006661         1.214881216626828575e-05      
0.012500000000000000694         0.9000000000000000222          1.4031194561114901376e-05     
0.012500000000000000694         0.91250000000000008882         1.6187079753482436217e-05     
0.012500000000000000694         0.92500000000000004441         1.8595375891328203011e-05     
0.012500000000000000694         0.9375                         2.1201257726310984708e-05     
0.012500000000000000694         0.95000000000000006661         2.3902632609429375066e-05     
0.012500000000000000694         0.9625000000000000222          2.6535013056161460554e-05     
0.012500000000000000694         0.97500000000000008882         2.8857714368779596725e-05     
0.012500000000000000694         0.98750000000000004441         3.0550111616456376851e-05     
0.025000000000000001388         0                              0                             
0.025000000000000001388         0.012500000000000000694        3.7979936375887035638e-06     
0.025000000000000001388         0.025000000000000001388        6.7300505850464986679e-06     
0.025000000000000001388         0.037500000000000005551        8.9795672479908716923e-06     
0.025000000000000001388         0.050000000000000002776        1.0682633131642305102e-05     
0.025000000000000001388         0.0625                         1.1943861869756489114e-05     
0.025000000000000001388         0.075000000000000011102        1.2848017420852286818e-05     
0.025000000000000001388         0.087500000000000008327        1.3465811640189784271e-05     
0.025000000000000001388         0.10000000000000000555         1.385677927534523235e-05      
0.025000000000000001388         0.11250000000000000278         1.4070914260422284769e-05     
0.025000000000000001388         0.125                          1.4149824480558237383e-05     
0.025000000000000001388         0.1375000000000000111          1.4127713893641313803e-05     
0.025000000000000001388         0.1500000000000000222          1.4032301296484916975e-05     
0.025000000000000001388         0.16250000000000000555         1.3885701645399706194e-05     
0.025000000000000001388         0.17500000000000001665         1.3705263708141401935e-05     
0.025000000000000001388         0.1875                         1.3504348983506275772e-05     
0.025000000000000001388         0.2000000000000000111          1.3293038190198558368e-05     
0.025000000000000001388         0.2125000000000000222          1.3078756603723817875e-05     
0.025000000000000001388         0.22500000000000000555         1.286681476586615247e-05      
0.025000000000000001388         0.23750000000000001665         1.2660866177238716546e-05     
0.025000000000000001388         0.25                           1.2463287285102708779e-05     
0.025000000000000001388         0.2625000000000000111          1.2275486817703296083e-05     
0.025000000000000001388         0.2750000000000000222          1.2098153891582086317e-05     
0.025000000000000001388         0.28750000000000003331         1.1931453104407907517e-05     
0.025000000000000001388         0.30000000000000004441         1.1775176333994608058e-05     
0.025000000000000001388         0.3125                         1.1628858412437992342e-05     
0.025000000000000001388         0.3250000000000000111          1.1491864599699752603e-05     
0.025000000000000001388         0.3375000000000000222          1.1363455636459462994e-05     
0.025000000000000001388         0.35000000000000003331         1.1242834994984463037e-05     
0.025000000000000001388         0.36250000000000004441         1.1129183996816394142e-05     
0.025000000000000001388         0.375                          1.1021686063816815704e-05     
0.025000000000000001388         0.3875000000000000111          1.0919544803034142433e-05     
0.025000000000000001388         0.4000000000000000222          1.0821996777821141222e-05     
0.025000000000000001388         0.41250000000000003331         1.0728320498198939958e-05     
0.025000000000000001388         0.42500000000000004441         1.0637843844030214768e-05     
0.025000000000000001388         0.4375                         1.0549949567062455458e-05     
0.025000000000000001388         0.4500000000000000111          1.0464081068750630266e-05     
0.025000000000000001388         0.4625000000000000222          1.0379747632294211712e-05     
0.025000000000000001388         0.47500000000000003331         1.0296530192022146366e-05     
0.025000000000000001388         0.48750000000000004441         1.0214089129600978367e-05     
0.025000000000000001388         0.5                            1.0132171776922049844e-05     
0.025000000000000001388         0.51250000000000006661         1.0050624057456047922e-05     
0.025000000000000001388         0.5250000000000000222          9.9694030610830708383e-06     
0.025000000000000001388         0.5374999999999999778          9.8885923087710381196e-06     
0.025000000000000001388         0.55000000000000004441         9.8084232691419970251e-06     
0.025000000000000001388         0.5625                         9.7292992415898282843e-06     
0.025000000000000001388         0.57500000000000006661         9.6518261947231565046e-06     
0.025000000000000001388         0.5875000000000000222          9.5768510182114852114e-06     
0.025000000000000001388         0.60000000000000008882         9.5055089555096117238e-06     
0.025000000000000001388         0.61250000000000004441         9.4392824683264819896e-06     
0.025000000000000001388         0.625                          9.3800738254490312329e-06     
0.025000000000000001388         0.63750000000000006661         9.3302957595575719552e-06     
0.025000000000000001388         0.6500000000000000222          9.2929824180298936653e-06     
0.025000000000000001388         0.66250000000000008882         9.2719268438568036572e-06     
0.025000000000000001388         0.67500000000000004441         9.2718487654241954488e-06     
0.025000000000000001388         0.6875                         9.2985986395177633312e-06     
0.025000000000000001388         0.70000000000000006661         9.3594040451172588746e-06     
0.025000000000000001388         0.7125000000000000222          9.4631633131836423445e-06     
0.025000000000000001388         0.72500000000000008882         9.6207905746492627941e-06     
0.025000000000000001388         0.73750000000000004441         9.8456138892810685093e-06     
0.025000000000000001388         0.75                           1.0153822542768864423e-05     
0.025000000000000001388         0.76250000000000006661         1.0564953577096858339e-05     
0.025000000000000001388         0.7750000000000000222          1.1102393382422803825e-05     
0.025000000000000001388         0.78750000000000008882         1.1793855157371524456e-05     
0.025000000000000001388         0.80000000000000004441         1.2671766355998315134e-05     
0.025000000000000001388         0.8125                         1.3773467124389426886e-05     
0.025000000000000001388         0.82500000000000006661         1.5141075756064381608e-05     
0.025000000000000001388         0.8375000000000000222          1.6820818392604408587e-05     
0.025000000000000001388         0.85000000000000008882         1.8861550251214609375e-05     
0.025000000000000001388         0.86250000000000004441         2.1312110958238150715e-05     
0.025000000000000001388         0.875                          2.4217064705123192425e-05     
0.025000000000000001388         0.88750000000000006661         2.7610287304469238734e-05     
0.025000000000000001388         0.9000000000000000222          3.1505787131180795768e-05     
0.025000000000000001388         0.91250000000000008882         3.5885129465951237648e-05     
0.025000000000000001388         0.92500000000000004441         4.0680908446999453076e-05     
0.025000000000000001388         0.9375                         4.5755978152373089074e-05     
0.025000000000000001388         0.95000000000000006661         5.0878748212301871945e-05     
0.025000000000000001388         0.9625000000000000222          5.5696017651873930276e-05     
0.025000000000000001388         0.97500000000000008882         5.9706982742602221492e-05     
0.025000000000000001388         0.98750000000000004441         6.2245581337272426481e-05     
0.037500000000000005551         0                              0                             
0.037500000000000005551         0.012500000000000000694        5.0470536494540141348e-06     
0.037500000000000005551         0.025000000000000001388        9.1291904316115335405e-06     
0.037500000000000005551         0.037500000000000005551        1.237566370027032292e-05      
0.037500000000000005551         0.050000000000000002776        1.4910473477680596943e-05     
0.037500000000000005551         0.0625                         1.684548513458672403e-05      
0.037500000000000005551         0.075000000000000011102        1.8280319394881061612e-05     
0.037500000000000005551         0.087500000000000008327        1.9303229005451782996e-05     
0.037500000000000005551         0.10000000000000000555         1.9991778914763003172e-05     
0.037500000000000005551         0.11250000000000000278         2.0413368660321395964e-05     
0.037500000000000005551         0.125                          2.0625765488668790226e-05     
0.037500000000000005551         0.1375000000000000111          2.0677739284824525612e-05     
0.037500000000000005551         0.1500000000000000222          2.0609815227556893547e-05     
0.037500000000000005551         0.16250000000000000555         2.0455118282969309007e-05     
0.037500000000000005551         0.17500000000000001665         2.0240266814797180928e-05     
0.037500000000000005551         0.1875                         1.9986270794136729023e-05     
0.037500000000000005551         0.2000000000000000111          1.9709397043099485813e-05     
0.037500000000000005551         0.2125000000000000222          1.942197297921666177e-05      
0.037500000000000005551         0.22500000000000000555         1.9133110732205693694e-05     
0.037500000000000005551         0.23750000000000001665         1.8849342242166500228e-05     
0.037500000000000005551         0.25                           1.8575163228451430086e-05     
0.037500000000000005551         0.2625000000000000111          1.8313489488219758528e-05     
0.037500000000000005551         0.2750000000000000222          1.8066032258179376413e-05     
0.037500000000000005551         0.28750000000000003331         1.7833601536398901999e-05     
0.037500000000000005551         0.30000000000000004441         1.7616347468329962567e-05     
0.037500000000000005551         0.3125                         1.7413949082278890046e-05     
0.037500000000000005551         0.3250000000000000111          1.7225760389649735771e-05     
0.037500000000000005551         0.3375000000000000222          1.7050921331973611927e-05     
0.037500000000000005551         0.35000000000000003331         1.6888441409346199862e-05     
0.037500000000000005551         0.36250000000000004441         1.6737261903765343618e-05     
0.037500000000000005551         0.375                          1.6596301879667763046e-05     
0.037500000000000005551         0.3875000000000000111          1.6464491997547625601e-05     
0.037500000000000005551         0.4000000000000000222          1.6340799615210954698e-05     
0.037500000000000005551         0.41250000000000003331         1.6224247241680700427e-05     
0.037500000000000005551         0.42500000000000004441         1.6113927510774672669e-05     
0.037500000000000005551         0.4375                         1.6009014996543058373e-05     
0.037500000000000005551         0.4500000000000000111          1.5908777115436478766e-05     
0.037500000000000005551         0.4625000000000000222          1.581258479599334521e-05      
0.037500000000000005551         0.47500000000000003331         1.5719923703194638165e-05     
0.037500000000000005551         0.48750000000000004441         1.5630406963174081625e-05     
0.037500000000000005551         0.5                            1.5543791241690030347e-05     
0.037500000000000005551         0.51250000000000006661         1.5459993106148317565e-05     
0.037500000000000005551         0.5250000000000000222          1.5379113114333264889e-05     
0.037500000000000005551         0.5374999999999999778          1.530146229500317645e-05      
0.037500000000000005551         0.55000000000000004441         1.5227596175115820643e-05     
0.037500000000000005551         0.5625                         1.5158356160727137762e-05     
0.037500000000000005551         0.57500000000000006661         1.5094921102631886356e-05     
0.037500000000000005551         0.5875000000000000222          1.5038870292638506498e-05     
0.037500000000000005551         0.60000000000000008882         1.4992262082014207181e-05     
0.037500000000000005551         0.61250000000000004441         1.4957730241516031811e-05     
0.037500000000000005551         0.625                          1.4938602453495875011e-05     
0.037500000000000005551         0.63750000000000006661         1.4939046632855834673e-05     
0.037500000000000005551         0.6500000000000000222          1.4964248965076976106e-05     
0.037500000000000005551         0.66250000000000008882         1.5020631579432119906e-05     
0.037500000000000005551         0.67500000000000004441         1.5116115315016998011e-05     
0.037500000000000005551         0.6875                         1.5260435108910286317e-05     
0.037500000000000005551         0.70000000000000006661         1.5465514265233792912e-05     
0.037500000000000005551         0.7125000000000000222          1.5745902507413589433e-05     
0.037500000000000005551         0.72500000000000008882         1.6119279307336142892e-05     
0.037500000000000005551         0.73750000000000004441         1.660701898864580528e-05      
0.037500000000000005551         0.75                           1.7234804106314172145e-05     
0.037500000000000005551         0.76250000000000006661         1.8033261947048018214e-05     
0.037500000000000005551         0.7750000000000000222          1.9038576818619645792e-05     
0.037500000000000005551         0.78750000000000008882         2.0293004965754590785e-05     
0.037500000000000005551         0.80000000000000004441         2.1845180498303307104e-05     
0.037500000000000005551         0.8125                         2.3750049773951786847e-05     
0.037500000000000005551         0.82500000000000006661         2.6068210269736269424e-05     
0.037500000000000005551         0.8375000000000000222          2.8864349719714965659e-05     
0.037500000000000005551         0.85000000000000008882         3.2204390477019728678e-05     
0.037500000000000005551         0.86250000000000004441         3.6150841530080413122e-05     
0.037500000000000005551         0.875                          4.0755754899146623416e-05     
0.037500000000000005551         0.88750000000000006661         4.6050593168311948489e-05     
0.037500000000000005551         0.9000000000000000222          5.2032255860368081812e-05     
0.037500000000000005551         0.91250000000000008882         5.8644535603891156939e-05     
0.037500000000000005551         0.92500000000000004441         6.5754424454222970553e-05     
0.037500000000000005551         0.9375                         7.3123063728752768498e-05     
0.037500000000000005551         0.95000000000000006661         8.037183728948349426e-05      