TITLE = 'DEM DATA | DEM DATA | DEM DATA | DEM DATA'
VARIABLES = 'X' 'Y' 'E' 
ZONE T='SubZone'
I=20 J=20 K=1 ZONETYPE=Ordered
DATAPACKING=POINT
DT=(SINGLE SINGLE SINGLE )
0                               0                              1.1000000000000001            
0                               0.050000000000000003           1.1000000000000001            
0                               0.10000000000000001            1.1000000000000001            
0                               0.15000000000000002            1.1000000000000001            
0                               0.20000000000000001            1.1000000000000001            
0                               0.25                           1.1000000000000001            
0                               0.30000000000000004            1.1000000000000001            
0                               0.35000000000000003            1.1000000000000001            
0                               0.40000000000000002            1.1000000000000001            
0                               0.45000000000000001            1.1000000000000001            
0                               0.5                            1.1000000000000001            
0                               0.55000000000000004            1.1000000000000001            
0                               0.60000000000000009            1.1000000000000001            
0                               0.65000000000000002            1.1000000000000001            
0                               0.70000000000000007            1.1000000000000001            
0                               0.75                           1.1000000000000001            
0                               0.80000000000000004            1.1000000000000001            
0                               0.85000000000000009            1.1000000000000001            
0                               0.90000000000000002            1.1000000000000001            
0                               0.95000000000000007            1.1000000000000001            
0.050000000000000003            0                              1.1000000000000001            
0.050000000000000003            0.050000000000000003           1.101530998110906             
0.050000000000000003            0.10000000000000001            1.1034142534115676            
0.050000000000000003            0.15000000000000002            1.1053564827764684            
0.050000000000000003            0.20000000000000001            1.1072711503673238            
0.050000000000000003            0.25                           1.1091569811089599            
0.050000000000000003            0.30000000000000004            1.1110251067364476            
0.050000000000000003            0.35000000000000003            1.1128842793262466            
0.050000000000000003            0.40000000000000002            1.1147405121462208            
0.050000000000000003            0.45000000000000001            1.1165986115650703            
0.050000000000000003            0.5                            1.1184627911946399            
0.050000000000000003            0.55000000000000004            1.120336799675395             
0.050000000000000003            0.60000000000000009            1.1222238982425405            
0.050000000000000003            0.65000000000000002            1.1241268493840011            
0.050000000000000003            0.70000000000000007            1.1260480378033415            
0.050000000000000003            0.75                           1.1279898740063499            
0.050000000000000003            0.80000000000000004            1.1299552880692321            
0.050000000000000003            0.85000000000000009            1.1319439680670922            
0.050000000000000003            0.90000000000000002            1.1339305422232206            
0.050000000000000003            0.95000000000000007            1.1358232970068982            
0.10000000000000001             0                              1.1000000000000001            
0.10000000000000001             0.050000000000000003           1.1031925638390685            
0.10000000000000001             0.10000000000000001            1.106869212727525             
0.10000000000000001             0.15000000000000002            1.1107067827177657            
0.10000000000000001             0.20000000000000001            1.1145296985133437            
0.10000000000000001             0.25                           1.1183042620859374            
0.10000000000000001             0.30000000000000004            1.1220437769981964            
0.10000000000000001             0.35000000000000003            1.1257644341456281            
0.10000000000000001             0.40000000000000002            1.1294781503530333            
0.10000000000000001             0.45000000000000001            1.1331941495892899            
0.10000000000000001             0.5                            1.1369203442261835            
0.10000000000000001             0.55000000000000004            1.1406638966465279            
0.10000000000000001             0.60000000000000009            1.1444314143297747            
0.10000000000000001             0.65000000000000002            1.1482290473339418            
0.10000000000000001             0.70000000000000007            1.1520626488018983            
0.10000000000000001             0.75                           1.1559379098670224            
0.10000000000000001             0.80000000000000004            1.159858205273389             
0.10000000000000001             0.85000000000000009            1.1638102520625357            
0.10000000000000001             0.90000000000000002            1.1677258251208329            
0.10000000000000001             0.95000000000000007            1.1714608619329578            
0.15000000000000002             0                              1.1000000000000001            
0.15000000000000002             0.050000000000000003           1.1049163793124286            
0.15000000000000002             0.10000000000000001            1.1103675757662859            
0.15000000000000002             0.15000000000000002            1.116062647933963             
0.15000000000000002             0.20000000000000001            1.1217791830585966            
0.15000000000000002             0.25                           1.1274410209873806            
0.15000000000000002             0.30000000000000004            1.1330519197769555            
0.15000000000000002             0.35000000000000003            1.1386326340821344            
0.15000000000000002             0.40000000000000002            1.1442009895986993            
0.15000000000000002             0.45000000000000001            1.1497709409523906            
0.15000000000000002             0.5                            1.155354300809889             
0.15000000000000002             0.55000000000000004            1.1609617348790953            
0.15000000000000002             0.60000000000000009            1.1666031835498167            
0.15000000000000002             0.65000000000000002            1.1722880751960572            
0.15000000000000002             0.70000000000000007            1.1780254316717294            
0.15000000000000002             0.75                           1.1838229330681842            
0.15000000000000002             0.80000000000000004            1.1896796584493214            
0.15000000000000002             0.85000000000000009            1.1955610768307445            
0.15000000000000002             0.90000000000000002            1.2013616996536429            
0.15000000000000002             0.95000000000000007            1.2069324937454171            
0.20000000000000001             0                              1.1000000000000001            
0.20000000000000001             0.050000000000000003           1.1066758117770794            
0.20000000000000001             0.10000000000000001            1.11390257627899              
0.20000000000000001             0.15000000000000002            1.1214310836603489            
0.20000000000000001             0.20000000000000001            1.1290241394573441            
0.20000000000000001             0.25                           1.1365682647062778            
0.20000000000000001             0.30000000000000004            1.1440493965550436            
0.20000000000000001             0.35000000000000003            1.1514883059266672            
0.20000000000000001             0.40000000000000002            1.1589078787375395            
0.20000000000000001             0.45000000000000001            1.1663268775442173            
0.20000000000000001             0.5                            1.1737611006797277            
0.20000000000000001             0.55000000000000004            1.1812247260652482            
0.20000000000000001             0.60000000000000009            1.1887309894987041            
0.20000000000000001             0.65000000000000002            1.1962924746988466            
0.20000000000000001             0.70000000000000007            1.2039208399517185            
0.20000000000000001             0.75                           1.2116236927405457            
0.20000000000000001             0.80000000000000004            1.2193910394947229            
0.20000000000000001             0.85000000000000009            1.227164651063825             
0.20000000000000001             0.90000000000000002            1.2348167388969828            
0.20000000000000001             0.95000000000000007            1.2422213559975022            
0.25                            0                              1.1000000000000001            
0.25                            0.050000000000000003           1.1084589995867762            
0.25                            0.10000000000000001            1.1174677527112595            
0.25                            0.15000000000000002            1.1268155241873832            
0.25                            0.20000000000000001            1.1362689838521904            
0.25                            0.25                           1.145687720847536             
0.25                            0.30000000000000004            1.155036323337036             
0.25                            0.35000000000000003            1.164330796550253             
0.25                            0.40000000000000002            1.1735973686118613            
0.25                            0.45000000000000001            1.1828593809011803            
0.25                            0.5                            1.1921366376195044            
0.25                            0.55000000000000004            1.2014468018498596            
0.25                            0.60000000000000009            1.210806303090342             
0.25                            0.65000000000000002            1.2202306023201557            
0.25                            0.70000000000000007            1.2297330715264667            
0.25                            0.75                           1.2393187184706584            
0.25                            0.80000000000000004            1.2489650493288946            
0.25                            0.85000000000000009            1.2585925785446839            
0.25                            0.90000000000000002            1.2680665240620825            
0.25                            0.95000000000000007            1.2772970280103342            
0.30000000000000004             0                              1.1000000000000001            
0.30000000000000004             0.050000000000000003           1.1102599094834662            
0.30000000000000004             0.10000000000000001            1.1210583709903525            
0.30000000000000004             0.15000000000000002            1.1322174864974774            
0.30000000000000004             0.20000000000000001            1.1435174943301645            
0.30000000000000004             0.25                           1.1548015546392181            
0.30000000000000004             0.30000000000000004            1.1660131344092508            
0.30000000000000004             0.35000000000000003            1.1771595435373312            
0.30000000000000004             0.40000000000000002            1.188268034279611             
0.30000000000000004             0.45000000000000001            1.1993658965027427            
0.30000000000000004             0.5                            1.2104768341833161            
0.30000000000000004             0.55000000000000004            1.2216219145982439            
0.30000000000000004             0.60000000000000009            1.2328205796700602            
0.30000000000000004             0.65000000000000002            1.2440906989766307            
0.30000000000000004             0.70000000000000007            1.2554460803664991            
0.30000000000000004             0.75                           1.2668865993627487            
0.30000000000000004             0.80000000000000004            1.2783757215349476            
0.30000000000000004             0.85000000000000009            1.2898179068449271            
0.30000000000000004             0.90000000000000002            1.3010835860279326            
0.30000000000000004             0.95000000000000007            1.3121233981929854            
0.35000000000000003             0                              1.1000000000000001            
0.35000000000000003             0.050000000000000003           1.1120750852109751            
0.35000000000000003             0.10000000000000001            1.124671127230648             
0.35000000000000003             0.15000000000000002            1.1376375675494963            
0.35000000000000003             0.20000000000000001            1.1507727246343948            
0.35000000000000003             0.25                           1.1639120958425924            
0.35000000000000003             0.30000000000000004            1.176980542380623             
0.35000000000000003             0.35000000000000003            1.1899740756689496            
0.35000000000000003             0.40000000000000002            1.2029184373130735            
0.35000000000000003             0.45000000000000001            1.2158438298743357            
0.35000000000000003             0.5                            1.2287775673332832            
0.35000000000000003             0.55000000000000004            1.2417439597165205            
0.35000000000000003             0.60000000000000009            1.2547651767050636            
0.35000000000000003             0.65000000000000002            1.2678608175146588            
0.35000000000000003             0.70000000000000007            1.2810436081047056            
0.35000000000000003             0.75                           1.2943061657426382            
0.35000000000000003             0.80000000000000004            1.3075981459297843            
0.35000000000000003             0.85000000000000009            1.3208140960281023            
0.35000000000000003             0.90000000000000002            1.3338382127017863            
0.35000000000000003             0.95000000000000007            1.346661685979055             
0.40000000000000002             0                              1.1000000000000001            
0.40000000000000002             0.050000000000000003           1.1139023360772355            
0.40000000000000002             0.10000000000000001            1.1283036793380545            
0.40000000000000002             0.15000000000000002            1.143075931343565             
0.40000000000000002             0.20000000000000001            1.1580370781792717            
0.40000000000000002             0.25                           1.1730216366495332            
0.40000000000000002             0.30000000000000004            1.1879394605820359            
0.40000000000000002             0.35000000000000003            1.2027740090163883            
0.40000000000000002             0.40000000000000002            1.2175471088792122            
0.40000000000000002             0.45000000000000001            1.2322905105726643            
0.40000000000000002             0.5                            1.2470346232030938            
0.40000000000000002             0.55000000000000004            1.2618067221113514            
0.40000000000000002             0.60000000000000009            1.2766312918113114            
0.40000000000000002             0.65000000000000002            1.2915287824415584            
0.40000000000000002             0.70000000000000007            1.3065092304695234            
0.40000000000000002             0.75                           1.3215565757675733            
0.40000000000000002             0.80000000000000004            1.3366081497409592            
0.40000000000000002             0.85000000000000009            1.3515545491848207            
0.40000000000000002             0.90000000000000002            1.3662991487962561            
0.40000000000000002             0.95000000000000007            1.3808717584545853            
0.45000000000000001             0                              1.1000000000000001            
0.45000000000000001             0.050000000000000003           1.1157401527832591            
0.45000000000000001             0.10000000000000001            1.131954297165511             
0.45000000000000001             0.15000000000000002            1.1485325229910823            
0.45000000000000001             0.20000000000000001            1.1653124129843746            
0.45000000000000001             0.25                           1.1821323006742372            
0.45000000000000001             0.30000000000000004            1.1988909130787002            
0.45000000000000001             0.35000000000000003            1.2155590324799219            
0.45000000000000001             0.40000000000000002            1.2321525410587131            
0.45000000000000001             0.45000000000000001            1.248703166894634             
0.45000000000000001             0.5                            1.2652436599736412            
0.45000000000000001             0.55000000000000004            1.2818038304873052            
0.45000000000000001             0.60000000000000009            1.2984099162041582            
0.45000000000000001             0.65000000000000002            1.3150821789964333            
0.45000000000000001             0.70000000000000007            1.3318264349501576            
0.45000000000000001             0.75                           1.3486173058091924            
0.45000000000000001             0.80000000000000004            1.3653820287210223            
0.45000000000000001             0.85000000000000009            1.3820124234488871            
0.45000000000000001             0.90000000000000002            1.3984340830828996            
0.45000000000000001             0.95000000000000007            1.4147127851470858            
0.5                             0                              1.1000000000000001            
0.5                             0.050000000000000003           1.1175874261254788            
0.5                             0.10000000000000001            1.1356216408272446            
0.5                             0.15000000000000002            1.1540071595081505            
0.5                             0.20000000000000001            1.1726001355454918            
0.5                             0.25                           1.1912459679777487            
0.5                             0.30000000000000004            1.209835947876138             
0.5                             0.35000000000000003            1.2283288831086905            
0.5                             0.40000000000000002            1.2467331831456538            
0.5                             0.45000000000000001            1.2650789114626673            
0.5                             0.5                            1.2834001806475508            
0.5                             0.55000000000000004            1.3017287223311078            
0.5                             0.60000000000000009            1.3200918057190913            
0.5                             0.65000000000000002            1.3385083553410655            
0.5                             0.70000000000000007            1.3569786898072076            
0.5                             0.75                           1.3754681103490407            
0.5                             0.80000000000000004            1.3938963435560798            
0.5                             0.85000000000000009            1.4121605670454345            
0.5                             0.90000000000000002            1.4302099737995206            
0.5                             0.95000000000000007            1.4481436060462998            
0.55000000000000004             0                              1.1000000000000001            
0.55000000000000004             0.050000000000000003           1.1194433046143755            
0.55000000000000004             0.10000000000000001            1.1393046313800999            
0.55000000000000004             0.15000000000000002            1.1594995737435723            
0.55000000000000004             0.20000000000000001            1.1799012786847205            
0.55000000000000004             0.25                           1.2003642388240892            
0.55000000000000004             0.30000000000000004            1.2207755625830261            
0.55000000000000004             0.35000000000000003            1.2410833157112648            
0.55000000000000004             0.40000000000000002            1.2612874396763916            
0.55000000000000004             0.45000000000000001            1.2814147359690651            
0.55000000000000004             0.5                            1.3014995160397587            
0.55000000000000004             0.55000000000000004            1.3215746209347214            
0.55000000000000004             0.60000000000000009            1.3416674682427199            
0.55000000000000004             0.65000000000000002            1.3617944472247896            
0.55000000000000004             0.70000000000000007            1.3819494859568626            
0.55000000000000004             0.75                           1.4020889700775423            
0.55000000000000004             0.80000000000000004            1.4221277718468435            
0.55000000000000004             0.85000000000000009            1.4419715066438961            
0.55000000000000004             0.90000000000000002            1.4615932666915157            
0.55000000000000004             0.95000000000000007            1.4811229613439225            
0.60000000000000009             0                              1.1000000000000001            
0.60000000000000009             0.050000000000000003           1.1213071208000855            
0.60000000000000009             0.10000000000000001            1.1430023811990739            
0.60000000000000009             0.15000000000000002            1.1650094456219924            
0.60000000000000009             0.20000000000000001            1.1872165692275694            
0.60000000000000009             0.25                           1.2094884247835895            
0.60000000000000009             0.30000000000000004            1.231710646634453             
0.60000000000000009             0.35000000000000003            1.2538220750386162            
0.60000000000000009             0.40000000000000002            1.2758136642869984            
0.60000000000000009             0.45000000000000001            1.2977075121832795            
0.60000000000000009             0.5                            1.3195368173340214            
0.60000000000000009             0.55000000000000004            1.3413345228213487            
0.60000000000000009             0.60000000000000009            1.3631271496434878            
0.60000000000000009             0.65000000000000002            1.3849274554901601            
0.60000000000000009             0.70000000000000007            1.406722338774012             
0.60000000000000009             0.75                           1.4284600271176326            
0.60000000000000009             0.80000000000000004            1.4500529963856521            
0.60000000000000009             0.85000000000000009            1.4714174491917384            
0.60000000000000009             0.90000000000000002            1.4925500436102315            
0.60000000000000009             0.95000000000000007            1.5136096492576454            
0.65000000000000002             0                              1.1000000000000001            
0.65000000000000002             0.050000000000000003           1.1231783572817751            
0.65000000000000002             0.10000000000000001            1.146714163237943             
0.65000000000000002             0.15000000000000002            1.1705364339260702            
0.65000000000000002             0.20000000000000001            1.194546491744374             
0.65000000000000002             0.25                           1.2186195610567212            
0.65000000000000002             0.30000000000000004            1.2426419448098238            
0.65000000000000002             0.35000000000000003            1.2665448662735579            
0.65000000000000002             0.40000000000000002            1.2903101599901572            
0.65000000000000002             0.45000000000000001            1.313953985745195             
0.65000000000000002             0.5                            1.3375070449664448            
0.65000000000000002             0.55000000000000004            1.3610011746770856            
0.65000000000000002             0.60000000000000009            1.3844608779774594            
0.65000000000000002             0.65000000000000002            1.4078942749473902            
0.65000000000000002             0.70000000000000007            1.43128079499764              
0.65000000000000002             0.75                           1.4545615110577521            
0.65000000000000002             0.80000000000000004            1.4776486118340577            
0.65000000000000002             0.85000000000000009            1.5004702839916937            
0.65000000000000002             0.90000000000000002            1.5230461325763089            
0.65000000000000002             0.95000000000000007            1.5455626532860345            
0.70000000000000007             0                              1.1000000000000001            
0.70000000000000007             0.050000000000000003           1.1250566651122842            
0.70000000000000007             0.10000000000000001            1.1504394267548737            
0.70000000000000007             0.15000000000000002            1.1760802200179072            
0.70000000000000007             0.20000000000000001            1.2018913536152493            
0.70000000000000007             0.25                           1.2277584362107032            
0.70000000000000007             0.30000000000000004            1.2535700398728631            
0.70000000000000007             0.35000000000000003            1.2792513294668797            
0.70000000000000007             0.40000000000000002            1.3047751857673717            
0.70000000000000007             0.45000000000000001            1.3301507971152526            
0.70000000000000007             0.5                            1.35540497223793              
0.70000000000000007             0.55000000000000004            1.3805671209157546            
0.70000000000000007             0.60000000000000009            1.4056585260362615            
0.70000000000000007             0.65000000000000002            1.43068169903197              
0.70000000000000007             0.70000000000000007            1.4556084158350435            
0.70000000000000007             0.75                           1.4803736564314096            
0.70000000000000007             0.80000000000000004            1.5048910418772612            
0.70000000000000007             0.85000000000000009            1.5291015970792488            
0.70000000000000007             0.90000000000000002            1.5530472385278564            
0.70000000000000007             0.95000000000000007            1.5769413090052731            
0.75                            0                              1.1000000000000001            
0.75                            0.050000000000000003           1.1269420805837465            
0.75                            0.10000000000000001            1.154177989638461             
0.75                            0.15000000000000002            1.1816406294541637            
0.75                            0.20000000000000001            1.2092513728142431            
0.75                            0.25                           1.2369056400078               
0.75                            0.30000000000000004            1.2644953544266415            
0.75                            0.35000000000000003            1.2919410265978442            
0.75                            0.40000000000000002            1.3192069467119776            
0.75                            0.45000000000000001            1.3462945073020354            
0.75                            0.5                            1.373225251030858             
0.75                            0.55000000000000004            1.4000247492002469            
0.75                            0.60000000000000009            1.4267098015730899            
0.75                            0.65000000000000002            1.453276432589969             
0.75                            0.70000000000000007            1.4796887349193353            
0.75                            0.75                           1.5058766149978651            
0.75                            0.80000000000000004            1.5317564958029974            