TITLE = 'DEM DATA | DEM DATA | DEM DATA | DEM DATA'
VARIABLES = 'X' 'Y' 'E' 
ZONE T='SubZone'
I=20 J=20 K=1 ZONETYPE=Ordered
DATAPACKING=POINT
DT=(SINGLE SINGLE SINGLE )
0                               0                              1.1000000000000001            
0                               0.050000000000000003           1.1000000000000001            
0                               0.10000000000000001            1.1000000000000001            
0                               0.15000000000000002            1.1000000000000001            
0                               0.20000000000000001            1.1000000000000001            
0                               0.25                           1.1000000000000001            
0                               0.30000000000000004            1.1000000000000001            
0                               0.35000000000000003            1.1000000000000001            
0                               0.40000000000000002            1.1000000000000001            
0                               0.45000000000000001            1.1000000000000001            
0                               0.5                            1.1000000000000001            
0                               0.55000000000000004            1.1000000000000001            
0                               0.60000000000000009            1.1000000000000001            
0                               0.65000000000000002            1.1000000000000001            
0                               0.70000000000000007            1.1000000000000001            
0                               0.75                           1.1000000000000001            
0                               0.80000000000000004            1.1000000000000001            
0                               0.85000000000000009            1.1000000000000001            
0                               0.90000000000000002            1.1000000000000001            
0                               0.95000000000000007            1.1000000000000001            
0.050000000000000003            0                              1.1000000000000001            
0.050000000000000003            0.050000000000000003           1.1003428987659298            
0.050000000000000003            0.10000000000000001            1.100985682902593             
0.050000000000000003            0.15000000000000002            1.1016856196601217            
0.050000000000000003            0.20000000000000001            1.1023688996952927            
0.050000000000000003            0.25                           1.1030327371980928            
0.050000000000000003            0.30000000000000004            1.1036851865960919            
0.050000000000000003            0.35000000000000003            1.1043318806967108            
0.050000000000000003            0.40000000000000002            1.1049758808282173            
0.050000000000000003            0.45000000000000001            1.1056190713364329            
0.050000000000000003            0.5                            1.1062627874579622            
0.050000000000000003            0.55000000000000004            1.1069080430409102            
0.050000000000000003            0.60000000000000009            1.1075556117398992            
0.050000000000000003            0.65000000000000002            1.1082060566573415            
0.050000000000000003            0.70000000000000007            1.108859737410282             
0.050000000000000003            0.75                           1.1095167173901326            
0.050000000000000003            0.80000000000000004            1.1101757467729669            
0.050000000000000003            0.85000000000000009            1.1108280028252171            
0.050000000000000003            0.90000000000000002            1.1114456068968745            
0.050000000000000003            0.95000000000000007            1.1119869815757288            
0.10000000000000001             0                              1.1000000000000001            
0.10000000000000001             0.050000000000000003           1.1007971545579316            
0.10000000000000001             0.10000000000000001            1.102008336448022             
0.10000000000000001             0.15000000000000002            1.1033684662697802            
0.10000000000000001             0.20000000000000001            1.1047296971986911            
0.10000000000000001             0.25                           1.1060601855713623            
0.10000000000000001             0.30000000000000004            1.1073676308438831            
0.10000000000000001             0.35000000000000003            1.1086622237481243            
0.10000000000000001             0.40000000000000002            1.1099504444800519            
0.10000000000000001             0.45000000000000001            1.1112363965297676            
0.10000000000000001             0.5                            1.1125230142887548            
0.10000000000000001             0.55000000000000004            1.1138125782418435            
0.10000000000000001             0.60000000000000009            1.1151068912741615            
0.10000000000000001             0.65000000000000002            1.1164072895265786            
0.10000000000000001             0.70000000000000007            1.1177144660878997            
0.10000000000000001             0.75                           1.1190275820258331            
0.10000000000000001             0.80000000000000004            1.1203402260593971            
0.10000000000000001             0.85000000000000009            1.1216286055997504            
0.10000000000000001             0.90000000000000002            1.1228404914814043            
0.10000000000000001             0.95000000000000007            1.1239318784114236            
0.15000000000000002             0                              1.1000000000000001            
0.15000000000000002             0.050000000000000003           1.1013067201871225            
0.15000000000000002             0.10000000000000001            1.1030714988969619            
0.15000000000000002             0.15000000000000002            1.1050595640706435            
0.15000000000000002             0.20000000000000001            1.1070862077794748            
0.15000000000000002             0.25                           1.1090828920635016            
0.15000000000000002             0.30000000000000004            1.111047045269592             
0.15000000000000002             0.35000000000000003            1.1129907901361962            
0.15000000000000002             0.40000000000000002            1.1149239653919467            
0.15000000000000002             0.45000000000000001            1.1168531095327088            
0.15000000000000002             0.5                            1.1187828623239948            
0.15000000000000002             0.55000000000000004            1.120716791484806             
0.15000000000000002             0.60000000000000009            1.1226576933451313            
0.15000000000000002             0.65000000000000002            1.1246075606895358            
0.15000000000000002             0.70000000000000007            1.1265670246501991            
0.15000000000000002             0.75                           1.1285329854283397            
0.15000000000000002             0.80000000000000004            1.1304908601772035            
0.15000000000000002             0.85000000000000009            1.1324001111415252            
0.15000000000000002             0.90000000000000002            1.1341948010990714            
0.15000000000000002             0.95000000000000007            1.135847914951414             
0.20000000000000001             0                              1.1000000000000001            
0.20000000000000001             0.050000000000000003           1.1018508554044908            
0.20000000000000001             0.10000000000000001            1.1041716968906856            
0.20000000000000001             0.15000000000000002            1.1067667061317348            
0.20000000000000001             0.20000000000000001            1.1094435839018941            
0.20000000000000001             0.25                           1.1121027793633802            
0.20000000000000001             0.30000000000000004            1.1147245300141788            
0.20000000000000001             0.35000000000000003            1.1173187459751979            
0.20000000000000001             0.40000000000000002            1.1198977675555049            
0.20000000000000001             0.45000000000000001            1.1224706286362827            
0.20000000000000001             0.5                            1.125043783377397             
0.20000000000000001             0.55000000000000004            1.1276221267095032            
0.20000000000000001             0.60000000000000009            1.1302094129023257            
0.20000000000000001             0.65000000000000002            1.1328081000655927            
0.20000000000000001             0.70000000000000007            1.1354180971735419            
0.20000000000000001             0.75                           1.1380323121021692            
0.20000000000000001             0.80000000000000004            1.1406256351474202            
0.20000000000000001             0.85000000000000009            1.1431424875780352            
0.20000000000000001             0.90000000000000002            1.1455143293539924            
0.20000000000000001             0.95000000000000007            1.1477399256829435            
0.25                            0                              1.1000000000000001            
0.25                            0.050000000000000003           1.1024212356195564            
0.25                            0.10000000000000001            1.10530634878815              
0.25                            0.15000000000000002            1.1084956432773754            
0.25                            0.20000000000000001            1.1118076324732749            
0.25                            0.25                           1.1151227806535724            
0.25                            0.30000000000000004            1.1184016040639235            
0.25                            0.35000000000000003            1.1216473897363861            
0.25                            0.40000000000000002            1.1248732535888102            
0.25                            0.45000000000000001            1.1280904747846729            
0.25                            0.5                            1.1313073769287452            
0.25                            0.55000000000000004            1.1345302089232703            
0.25                            0.60000000000000009            1.1377636084879448            
0.25                            0.65000000000000002            1.1410101809476612            
0.25                            0.70000000000000007            1.1442681714926668            
0.25                            0.75                           1.1475246066283595            
0.25                            0.80000000000000004            1.1507425194281176            
0.25                            0.85000000000000009            1.1538551264253345            
0.25                            0.90000000000000002            1.1568010073390667            
0.25                            0.95000000000000007            1.1596088613739806            
0.30000000000000004             0                              1.1000000000000001            
0.30000000000000004             0.050000000000000003           1.1030139033406394            
0.30000000000000004             0.10000000000000001            1.1064742317999241            
0.30000000000000004             0.15000000000000002            1.1102512240342406            
0.30000000000000004             0.20000000000000001            1.1141845695351222            
0.30000000000000004             0.25                           1.1181468574070788            
0.30000000000000004             0.30000000000000004            1.1220803849993752            
0.30000000000000004             0.35000000000000003            1.1259782488232315            
0.30000000000000004             0.40000000000000002            1.129851931845171             
0.30000000000000004             0.45000000000000001            1.1337142510283562            
0.30000000000000004             0.5                            1.1375753180674102            
0.30000000000000004             0.55000000000000004            1.1414427214766345            
0.30000000000000004             0.60000000000000009            1.1453218377928029            
0.30000000000000004             0.65000000000000002            1.149214912733153             
0.30000000000000004             0.70000000000000007            1.1531172678108104            
0.30000000000000004             0.75                           1.157008136270292             
0.30000000000000004             0.80000000000000004            1.1608384673776482            
0.30000000000000004             0.85000000000000009            1.1645355941820958            
0.30000000000000004             0.90000000000000002            1.16805390089599              
0.30000000000000004             0.95000000000000007            1.1714538424085896            
0.35000000000000003             0                              1.1000000000000001            
0.35000000000000003             0.050000000000000003           1.1036260187803626            
0.35000000000000003             0.10000000000000001            1.1076742166330091            
0.35000000000000003             0.15000000000000002            1.1120373984460443            
0.35000000000000003             0.20000000000000001            1.116580741976918             
0.35000000000000003             0.25                           1.1211799422875655            
0.35000000000000003             0.30000000000000004            1.1257637474659092            
0.35000000000000003             0.35000000000000003            1.1303131843649585            
0.35000000000000003             0.40000000000000002            1.1348354330144468            
0.35000000000000003             0.45000000000000001            1.1393436187736365            
0.35000000000000003             0.5                            1.1438493159383225            
0.35000000000000003             0.55000000000000004            1.1483613361725018            
0.35000000000000003             0.60000000000000009            1.1528855142539842            
0.35000000000000003             0.65000000000000002            1.1574229408093075            
0.35000000000000003             0.70000000000000007            1.1619643823410171            
0.35000000000000003             0.75                           1.1664795073756127            
0.35000000000000003             0.80000000000000004            1.1709083703133447            
0.35000000000000003             0.85000000000000009            1.1751793694142372            
0.35000000000000003             0.90000000000000002            1.1792706003258981            
0.35000000000000003             0.95000000000000007            1.1832735726795218            
0.40000000000000002             0                              1.1000000000000001            
0.40000000000000002             0.050000000000000003           1.104254553639392             
0.40000000000000002             0.10000000000000001            1.1089040108311576            
0.40000000000000002             0.15000000000000002            1.1138563865196025            
0.40000000000000002             0.20000000000000001            1.1190018716148966            
0.40000000000000002             0.25                           1.1242275828181403            
0.40000000000000002             0.30000000000000004            1.1294553583778295            
0.40000000000000002             0.35000000000000003            1.1346544851318712            
0.40000000000000002             0.40000000000000002            1.1398255278621141            
0.40000000000000002             0.45000000000000001            1.1449802521163213            
0.40000000000000002             0.5                            1.1501310183589535            
0.40000000000000002             0.55000000000000004            1.1552875333968762            
0.40000000000000002             0.60000000000000009            1.1604555467501572            
0.40000000000000002             0.65000000000000002            1.1656337670223373            
0.40000000000000002             0.70000000000000007            1.1708064251866519            
0.40000000000000002             0.75                           1.1759324882591882            
0.40000000000000002             0.80000000000000004            1.1809445188761445            
0.40000000000000002             0.85000000000000009            1.1857806899721954            
0.40000000000000002             0.90000000000000002            1.1904489350817382            
0.40000000000000002             0.95000000000000007            1.1950674105577725            
0.45000000000000001             0                              1.1000000000000001            
0.45000000000000001             0.050000000000000003           1.1048960348249899            
0.45000000000000001             0.10000000000000001            1.1101596126457509            
0.45000000000000001             0.15000000000000002            1.1157077330899352            
0.45000000000000001             0.20000000000000001            1.1214518044309938            
0.45000000000000001             0.25                           1.1272950177052323            
0.45000000000000001             0.30000000000000004            1.1331593163269797            
0.45000000000000001             0.35000000000000003            1.1390047630651408            
0.45000000000000001             0.40000000000000002            1.1448240148818751            
0.45000000000000001             0.45000000000000001            1.1506256421879297            
0.45000000000000001             0.5                            1.1564216982974398            
0.45000000000000001             0.55000000000000004            1.1622220793355298            
0.45000000000000001             0.60000000000000009            1.1680314529774847            
0.45000000000000001             0.65000000000000002            1.1738444014445049            
0.45000000000000001             0.70000000000000007            1.1796366678489181            
0.45000000000000001             0.75                           1.18535711069366              
0.45000000000000001             0.80000000000000004            1.1909372409229484            
0.45000000000000001             0.85000000000000009            1.196334422657408             
0.45000000000000001             0.90000000000000002            1.2015885917551592            
0.45000000000000001             0.95000000000000007            1.2068359418197809            
0.5                             0                              1.1000000000000001            
0.5                             0.050000000000000003           1.1055468580986865            
0.5                             0.10000000000000001            1.111435640582672             
0.5                             0.15000000000000002            1.1175879813173732            
0.5                             0.20000000000000001            1.1239312542322124            
0.5                             0.25                           1.130385691568798             
0.5                             0.30000000000000004            1.1368790975241649            
0.5                             0.35000000000000003            1.1433662946777783            
0.5                             0.40000000000000002            1.1498321415813413            
0.5                             0.45000000000000001            1.1562804023218076            
0.5                             0.5                            1.1627213174875071            
0.5                             0.55000000000000004            1.1691637020904897            
0.5                             0.60000000000000009            1.1756095496072956            
0.5                             0.65000000000000002            1.182047302311436             
0.5                             0.70000000000000007            1.188443334322284             
0.5                             0.75                           1.1947400838320987            
0.5                             0.80000000000000004            1.2008771236565938            
0.5                             0.85000000000000009            1.2068383686607811            
0.5                             0.90000000000000002            1.2126920331568329            
0.5                             0.95000000000000007            1.2185809222876656            
0.55000000000000004             0                              1.1000000000000001            
0.55000000000000004             0.050000000000000003           1.106203761088447             
0.55000000000000004             0.10000000000000001            1.1127262558795732            
0.55000000000000004             0.15000000000000002            1.11949132619265              
0.55000000000000004             0.20000000000000001            1.1264373082966546            
0.55000000000000004             0.25                           1.1334997787013328            
0.55000000000000004             0.30000000000000004            1.1406159017223856            
0.55000000000000004             0.35000000000000003            1.1477395517180822            
0.55000000000000004             0.40000000000000002            1.1548491615445771            
0.55000000000000004             0.45000000000000001            1.1619426059363667            
0.55000000000000004             0.5                            1.1690264831062509            
0.55000000000000004             0.55000000000000004            1.1761066228459718            
0.55000000000000004             0.60000000000000009            1.1831803342081755            
0.55000000000000004             0.65000000000000002            1.1902285103411203            
0.55000000000000004             0.70000000000000007            1.1972098572960947            
0.55000000000000004             0.75                           1.2040675214987411            
0.55000000000000004             0.80000000000000004            1.2107584147708479            
0.55000000000000004             0.85000000000000009            1.2172949740092627            
0.55000000000000004             0.90000000000000002            1.2237643106844911            
0.55000000000000004             0.95000000000000007            1.2303046926540884            
0.60000000000000009             0                              1.1000000000000001            
0.60000000000000009             0.050000000000000003           1.1068641563054076            
0.60000000000000009             0.10000000000000001            1.1140261604727573            
0.60000000000000009             0.15000000000000002            1.1214110257931109            
0.60000000000000009             0.20000000000000001            1.128964213270031             
0.60000000000000009             0.25                           1.1366337255473451            
0.60000000000000009             0.30000000000000004            1.1443673095845028            
0.60000000000000009             0.35000000000000003            1.1521214621639047            
0.60000000000000009             0.40000000000000002            1.15987031480275              
0.60000000000000009             0.45000000000000001            1.1676053854670982            
0.60000000000000009             0.5                            1.1753276978561384            
0.60000000000000009             0.55000000000000004            1.1830378466335147            
0.60000000000000009             0.60000000000000009            1.1907267583091694            
0.60000000000000009             0.65000000000000002            1.1983683002397771            
0.60000000000000009             0.70000000000000007            1.205918492345347             
0.60000000000000009             0.75                           1.2133298358087594            
0.60000000000000009             0.80000000000000004            1.2205821222846722            
0.60000000000000009             0.85000000000000009            1.22771145414531              
0.60000000000000009             0.90000000000000002            1.2348118505769703            
0.60000000000000009             0.95000000000000007            1.2420093846672704            
0.65000000000000002             0                              1.1000000000000001            
0.65000000000000002             0.050000000000000003           1.1075262115517781            
0.65000000000000002             0.10000000000000001            1.1153312298532134            
0.65000000000000002             0.15000000000000002            1.1233409056631745            
0.65000000000000002             0.20000000000000001            1.1315052051311507            
0.65000000000000002             0.25                           1.1397814901411161            
0.65000000000000002             0.30000000000000004            1.1481276349401413            
0.65000000000000002             0.35000000000000003            1.1565051052230995            
0.65000000000000002             0.40000000000000002            1.1648860517973116            
0.65000000000000002             0.45000000000000001            1.1732558629004508            
0.65000000000000002             0.5                            1.1816084399248201            
0.65000000000000002             0.55000000000000004            1.1899373199915029            
0.65000000000000002             0.60000000000000009            1.1982267430327855            
0.65000000000000002             0.65000000000000002            1.2064466553429776            
0.65000000000000002             0.70000000000000007            1.2145571811413258            
0.65000000000000002             0.75                           1.2225266418193101            
0.65000000000000002             0.80000000000000004            1.2303568879091036            
0.65000000000000002             0.85000000000000009            1.2380980565233712            
0.65000000000000002             0.90000000000000002            1.2458407851139142            
0.65000000000000002             0.95000000000000007            1.2536962807595791            
0.70000000000000007             0                              1.1000000000000001            
0.70000000000000007             0.050000000000000003           1.1081887361938121            
0.70000000000000007             0.10000000000000001            1.1166386360749483            
0.70000000000000007             0.15000000000000002            1.125276294861344             
0.70000000000000007             0.20000000000000001            1.1340544216127044            
0.70000000000000007             0.25                           1.1429369656977464            
0.70000000000000007             0.30000000000000004            1.1518904334149545            
0.70000000000000007             0.35000000000000003            1.160882309993909             
0.70000000000000007             0.40000000000000002            1.1698849023367968            
0.70000000000000007             0.45000000000000001            1.1788785451469328            
0.70000000000000007             0.5                            1.1878496540647181            
0.70000000000000007             0.55000000000000004            1.1967843366640734            
0.70000000000000007             0.60000000000000009            1.2056617530598925            
0.70000000000000007             0.65000000000000002            1.2144524660109324            
0.70000000000000007             0.70000000000000007            1.2231261883578251            
0.70000000000000007             0.75                           1.2316683891567777            
0.70000000000000007             0.80000000000000004            1.2400966867164007            
0.70000000000000007             0.85000000000000009            1.2484652252712096            
0.70000000000000007             0.90000000000000002            1.2568555754719899            
0.70000000000000007             0.95000000000000007            1.2653655473411436            
0.75                            0                              1.1000000000000001            
0.75                            0.050000000000000003           1.1088510297472054            
0.75                            0.10000000000000001            1.1179466292677604            
0.75                            0.15000000000000002            1.127214168424997             
0.75                            0.20000000000000001            1.1366079124689417            
0.75                            0.25                           1.146096035885436             
0.75                            0.30000000000000004            1.1556516237161936            
0.75                            0.35000000000000003            1.1652480708194621            
0.75                            0.40000000000000002            1.1748595256397596            
0.75                            0.45000000000000001            1.1844632159010227            
0.75                            0.5                            1.1940394546372759            
0.75                            0.55000000000000004            1.2035684737424592            
0.75                            0.60000000000000009            1.2130272076567659            
0.75                            0.65000000000000002            1.2223905601020566            
0.75                            0.70000000000000007            1.2316395002660578            
0.75                            0.75                           1.240773005088964             
0.75                            0.80000000000000004            1.2498164007872796            