TITLE = 'DEM DATA | DEM DATA | DEM DATA | DEM DATA'
VARIABLES = 'X' 'Y' 'E' 
ZONE T='SubZone'
I=20 J=20 K=1 ZONETYPE=Ordered
DATAPACKING=POINT
DT=(SINGLE SINGLE SINGLE )
0                               0                              1.1000000000000001            
0                               0.050000000000000003           1.1000000000000001            
0                               0.10000000000000001            1.1000000000000001            
0                               0.15000000000000002            1.1000000000000001            
0                               0.20000000000000001            1.1000000000000001            
0                               0.25                           1.1000000000000001            
0                               0.30000000000000004            1.1000000000000001            
0                               0.35000000000000003            1.1000000000000001            
0                               0.40000000000000002            1.1000000000000001            
0                               0.45000000000000001            1.1000000000000001            
0                               0.5                            1.1000000000000001            
0                               0.55000000000000004            1.1000000000000001            
0                               0.60000000000000009            1.1000000000000001            
0                               0.65000000000000002            1.1000000000000001            
0                               0.70000000000000007            1.1000000000000001            
0                               0.75                           1.1000000000000001            
0                               0.80000000000000004            1.1000000000000001            
0                               0.85000000000000009            1.1000000000000001            
0                               0.90000000000000002            1.1000000000000001            
0                               0.95000000000000007            1.1000000000000001            
0.050000000000000003            0                              1.1000000000000001            
0.050000000000000003            0.050000000000000003           1.1009366866488293            
0.050000000000000003            0.10000000000000001            1.102199804948649             
0.050000000000000003            0.15000000000000002            1.1035210076644837            
0.050000000000000003            0.20000000000000001            1.1048200383797915            
0.050000000000000003            0.25                           1.1060949181330526            
0.050000000000000003            0.30000000000000004            1.1073552700118565            
0.050000000000000003            0.35000000000000003            1.1086082970631841            
0.050000000000000003            0.40000000000000002            1.1098585422785403            
0.050000000000000003            0.45000000000000001            1.1111093553696578            
0.050000000000000003            0.5                            1.1123635142039954            
0.050000000000000003            0.55000000000000004            1.1136234025925271            
0.050000000000000003            0.60000000000000009            1.1148910398490679            
0.050000000000000003            0.65000000000000002            1.1161680904439903            
0.050000000000000003            0.70000000000000007            1.1174559293211839            
0.050000000000000003            0.75                           1.1187558025976216            
0.050000000000000003            0.80000000000000004            1.1200685994371142            
0.050000000000000003            0.85000000000000009            1.1213899726431475            
0.050000000000000003            0.90000000000000002            1.1226935675605305            
0.050000000000000003            0.95000000000000007            1.1239116900594683            
0.10000000000000001             0                              1.1000000000000001            
0.10000000000000001             0.050000000000000003           1.1019938585926008            
0.10000000000000001             0.10000000000000001            1.1044380179517135            
0.10000000000000001             0.15000000000000002            1.1070373904991728            
0.10000000000000001             0.20000000000000001            1.1096297974958489            
0.10000000000000001             0.25                           1.1121825882927983            
0.10000000000000001             0.30000000000000004            1.1147064068654302            
0.10000000000000001             0.35000000000000003            1.1172145072429767            
0.10000000000000001             0.40000000000000002            1.1197161190792053            
0.10000000000000001             0.45000000000000001            1.1222179280730686            
0.10000000000000001             0.5                            1.1247253751848483            
0.10000000000000001             0.55000000000000004            1.127243195793171             
0.10000000000000001             0.60000000000000009            1.1297756064156546            
0.10000000000000001             0.65000000000000002            1.132326361739445             
0.10000000000000001             0.70000000000000007            1.1348987549582505            
0.10000000000000001             0.75                           1.1374952711946957            
0.10000000000000001             0.80000000000000004            1.1401146077216344            
0.10000000000000001             0.85000000000000009            1.1427387515287517            
0.10000000000000001             0.90000000000000002            1.1453075013299374            
0.10000000000000001             0.95000000000000007            1.147723089784797             
0.15000000000000002             0                              1.1000000000000001            
0.15000000000000002             0.050000000000000003           1.1031088369292577            
0.15000000000000002             0.10000000000000001            1.1067171855393645            
0.15000000000000002             0.15000000000000002            1.1105602193947695            
0.15000000000000002             0.20000000000000001            1.1144329241546798            
0.15000000000000002             0.25                           1.1182630386466128            
0.15000000000000002             0.30000000000000004            1.1220515493016188            
0.15000000000000002             0.35000000000000003            1.1258151131317873            
0.15000000000000002             0.40000000000000002            1.1295676662074801            
0.15000000000000002             0.45000000000000001            1.1333195213372906            
0.15000000000000002             0.5                            1.1370789578718705            
0.15000000000000002             0.55000000000000004            1.140853137777686             
0.15000000000000002             0.60000000000000009            1.1446484699319455            
0.15000000000000002             0.65000000000000002            1.1484707085919501            
0.15000000000000002             0.70000000000000007            1.1523247519946747            
0.15000000000000002             0.75                           1.1562130743291144            
0.15000000000000002             0.80000000000000004            1.1601284423606719            
0.15000000000000002             0.85000000000000009            1.1640341160197745            
0.15000000000000002             0.90000000000000002            1.1678434498582577            
0.15000000000000002             0.95000000000000007            1.1714606796655893            
0.20000000000000001             0                              1.1000000000000001            
0.20000000000000001             0.050000000000000003           1.1042572720448236            
0.20000000000000001             0.10000000000000001            1.1090312535945757            
0.20000000000000001             0.15000000000000002            1.114096220195701             
0.20000000000000001             0.20000000000000001            1.1192340310775089            
0.20000000000000001             0.25                           1.1243378333880891            
0.20000000000000001             0.30000000000000004            1.1293915003322863            
0.20000000000000001             0.35000000000000003            1.1344109425995679            
0.20000000000000001             0.40000000000000002            1.139414053506804             
0.20000000000000001             0.45000000000000001            1.1444148919507322            
0.20000000000000001             0.5                            1.1494247066098877            
0.20000000000000001             0.55000000000000004            1.1544531406977256            
0.20000000000000001             0.60000000000000009            1.1595087898937355            
0.20000000000000001             0.65000000000000002            1.1645992886468413            
0.20000000000000001             0.70000000000000007            1.1697306077712668            
0.20000000000000001             0.75                           1.1749034450594276            
0.20000000000000001             0.80000000000000004            1.1801012489434846            
0.20000000000000001             0.85000000000000009            1.1852680683610197            
0.20000000000000001             0.90000000000000002            1.1903029254131856            
0.20000000000000001             0.95000000000000007            1.1951290381703104            
0.25                            0                              1.1000000000000001            
0.25                            0.050000000000000003           1.1054284234126901            
0.25                            0.10000000000000001            1.1113745273723978            
0.25                            0.15000000000000002            1.1176488865136864            
0.25                            0.20000000000000001            1.1240376581708564            
0.25                            0.25                           1.1304092439000242            
0.25                            0.30000000000000004            1.1367273574196652            
0.25                            0.35000000000000003            1.1430028522673079            
0.25                            0.40000000000000002            1.1492560566009435            
0.25                            0.45000000000000001            1.1555046320601408            
0.25                            0.5                            1.1617628876553707            
0.25                            0.55000000000000004            1.168042990342836             
0.25                            0.60000000000000009            1.1743556791048639            
0.25                            0.65000000000000002            1.1807102322407059            
0.25                            0.70000000000000007            1.1871128786177216            
0.25                            0.75                           1.193560563424545             
0.25                            0.80000000000000004            1.200025280385415             
0.25                            0.85000000000000009            1.2064347387440324            
0.25                            0.90000000000000002            1.2126847535258458            
0.25                            0.95000000000000007            1.2187243801805427            
0.30000000000000004             0                              1.1000000000000001            
0.30000000000000004             0.050000000000000003           1.1066169600353433            
0.30000000000000004             0.10000000000000001            1.1137429912518113            
0.30000000000000004             0.15000000000000002            1.1212200285807736            
0.30000000000000004             0.20000000000000001            1.1288478156898991            
0.30000000000000004             0.25                           1.136479997225208             
0.30000000000000004             0.30000000000000004            1.1440605667414028            
0.30000000000000004             0.35000000000000003            1.1515918377157828            
0.30000000000000004             0.40000000000000002            1.159094527002124             
0.30000000000000004             0.45000000000000001            1.1665894072817091            
0.30000000000000004             0.5                            1.1740938437110546            
0.30000000000000004             0.55000000000000004            1.1816225409565158            
0.30000000000000004             0.60000000000000009            1.1891882848705171            
0.30000000000000004             0.65000000000000002            1.1968016189052584            
0.30000000000000004             0.70000000000000007            1.2044679845129671            
0.30000000000000004             0.75                           1.2121787406775839            
0.30000000000000004             0.80000000000000004            1.2198937797769243            
0.30000000000000004             0.85000000000000009            1.2275289976594788            
0.30000000000000004             0.90000000000000002            1.2349853472142747            
0.30000000000000004             0.95000000000000007            1.2422391881659083            
0.35000000000000003             0                              1.1000000000000001            
0.35000000000000003             0.050000000000000003           1.1078199911803956            
0.35000000000000003             0.10000000000000001            1.1161340641578488            
0.35000000000000003             0.15000000000000002            1.1248107278978443            
0.35000000000000003             0.20000000000000001            1.1336679355361889            
0.35000000000000003             0.25                           1.142553041005999             
0.35000000000000003             0.30000000000000004            1.1513928957669122            
0.35000000000000003             0.35000000000000003            1.1601790432697299            
0.35000000000000003             0.40000000000000002            1.168930369567611             
0.35000000000000003             0.45000000000000001            1.1776699137002486            
0.35000000000000003             0.5                            1.1864179431716304            
0.35000000000000003             0.55000000000000004            1.1951916596236096            
0.35000000000000003             0.60000000000000009            1.204005725908202             
0.35000000000000003             0.65000000000000002            1.2128714215834659            
0.35000000000000003             0.70000000000000007            1.2217922300874766            
0.35000000000000003             0.75                           1.2307525058293687            
0.35000000000000003             0.80000000000000004            1.2397006762815441            
0.35000000000000003             0.85000000000000009            1.2485457083373692            
0.35000000000000003             0.90000000000000002            1.2571992589759193            
0.35000000000000003             0.95000000000000007            1.2656639627446997            
0.40000000000000002             0                              1.1000000000000001            
0.40000000000000002             0.050000000000000003           1.1090358708012036            
0.40000000000000002             0.10000000000000001            1.1185461985810778            
0.40000000000000002             0.15000000000000002            1.1284218315147234            
0.40000000000000002             0.20000000000000001            1.1385009829277941            
0.40000000000000002             0.25                           1.1486313841401226            
0.40000000000000002             0.30000000000000004            1.1587263768223401            
0.40000000000000002             0.35000000000000003            1.168765767589502             
0.40000000000000002             0.40000000000000002            1.1787645345446798            
0.40000000000000002             0.45000000000000001            1.1887468514281452            
0.40000000000000002             0.5                            1.1987355440884462            
0.40000000000000002             0.55000000000000004            1.2087501815845261            
0.40000000000000002             0.60000000000000009            1.2188070399384507            
0.40000000000000002             0.65000000000000002            1.2289174711140671            
0.40000000000000002             0.70000000000000007            1.2390818267364714            
0.40000000000000002             0.75                           1.2492765971854429            
0.40000000000000002             0.80000000000000004            1.2594402473175945            
0.40000000000000002             0.85000000000000009            1.2694793155667539            
0.40000000000000002             0.90000000000000002            1.2793195571220015            
0.40000000000000002             0.95000000000000007            1.2889879507677442            
0.45000000000000001             0                              1.1000000000000001            
0.45000000000000001             0.050000000000000003           1.1102636481796531            
0.45000000000000001             0.10000000000000001            1.1209785672565966            
0.45000000000000001             0.15000000000000002            1.1320541905965282            
0.45000000000000001             0.20000000000000001            1.1433496067389137            
0.45000000000000001             0.25                           1.1547180177258003            
0.45000000000000001             0.30000000000000004            1.1660632465597607            
0.45000000000000001             0.35000000000000003            1.1773534623319082            
0.45000000000000001             0.40000000000000002            1.1885980168877559            
0.45000000000000001             0.45000000000000001            1.1998209064849776            
0.45000000000000001             0.5                            1.2110469634961345            
0.45000000000000001             0.55000000000000004            1.222297870175145             
0.45000000000000001             0.60000000000000009            1.2335911407434073            
0.45000000000000001             0.65000000000000002            1.2449374347285562            
0.45000000000000001             0.70000000000000007            1.2563329034524755            
0.45000000000000001             0.75                           1.2677458665142423            
0.45000000000000001             0.80000000000000004            1.2791067882412273            
0.45000000000000001             0.85000000000000009            1.290323576864201             
0.45000000000000001             0.90000000000000002            1.3013380265300867            
0.45000000000000001             0.95000000000000007            1.3121994788386113            
0.5                             0                              1.1000000000000001            
0.5                             0.050000000000000003           1.1115027625535456            
0.5                             0.10000000000000001            1.123430820110026             
0.5                             0.15000000000000002            1.1357087545543354            
0.5                             0.20000000000000001            1.1482162759093792            
0.5                             0.25                           1.160815898959707             
0.5                             0.30000000000000004            1.173405899593801             
0.5                             0.35000000000000003            1.1859437285578796            
0.5                             0.40000000000000002            1.198431861315463             
0.5                             0.45000000000000001            1.2108927412547412            
0.5                             0.5                            1.2233524531965807            
0.5                             0.55000000000000004            1.2358343826436948            
0.5                             0.60000000000000009            1.24835678363089              
0.5                             0.65000000000000002            1.2609287945670062            
0.5                             0.70000000000000007            1.2735414789345081            
0.5                             0.75                           1.2861551167967802            
0.5                             0.80000000000000004            1.2986942893840536            
0.5                             0.85000000000000009            1.31107135155458              
0.5                             0.90000000000000002            1.3232452720308558            
0.5                             0.95000000000000007            1.3352861364665003            
0.55000000000000004             0                              1.1000000000000001            
0.55000000000000004             0.050000000000000003           1.1127528264694253            
0.55000000000000004             0.10000000000000001            1.1259028573158925            
0.55000000000000004             0.15000000000000002            1.1393865570580131            
0.55000000000000004             0.20000000000000001            1.1531033691002901            
0.55000000000000004             0.25                           1.1669279698748491            
0.55000000000000004             0.30000000000000004            1.1807568656231511            
0.55000000000000004             0.35000000000000003            1.1945383171879596            
0.55000000000000004             0.40000000000000002            1.2082671728942578            
0.55000000000000004             0.45000000000000001            1.2219629929507843            
0.55000000000000004             0.5                            1.2356521820070285            
0.55000000000000004             0.55000000000000004            1.2493592410412362            
0.55000000000000004             0.60000000000000009            1.2631025333485213            
0.55000000000000004             0.65000000000000002            1.2768888134334901            
0.55000000000000004             0.70000000000000007            1.2907033753023061            
0.55000000000000004             0.75                           1.3044988775285034            
0.55000000000000004             0.80000000000000004            1.3181961196179204            
0.55000000000000004             0.85000000000000009            1.3317144347081948            
0.55000000000000004             0.90000000000000002            1.3450308049659272            
0.55000000000000004             0.95000000000000007            1.3582349213454092            
0.60000000000000009             0                              1.1000000000000001            
0.60000000000000009             0.050000000000000003           1.1140134419849068            
0.60000000000000009             0.10000000000000001            1.1283945842518326            
0.60000000000000009             0.15000000000000002            1.1430885962158885            
0.60000000000000009             0.20000000000000001            1.1580131841707197            
0.60000000000000009             0.25                           1.1730571743840112            
0.60000000000000009             0.30000000000000004            1.188118806659991             
0.60000000000000009             0.35000000000000003            1.2031391352951972            
0.60000000000000009             0.40000000000000002            1.2181051348125249            
0.60000000000000009             0.45000000000000001            1.2330322795047577            
0.60000000000000009             0.5                            1.2479462232603944            
0.60000000000000009             0.55000000000000004            1.2628718038968247            
0.60000000000000009             0.60000000000000009            1.2778267198730582            
0.60000000000000009             0.65000000000000002            1.2928144729904671            
0.60000000000000009             0.70000000000000007            1.3078140553570137            
0.60000000000000009             0.75                           1.3227711214526521            
0.60000000000000009             0.80000000000000004            1.3376047317080104            
0.60000000000000009             0.85000000000000009            1.3522434637803831            
0.60000000000000009             0.90000000000000002            1.3666831799698431            
0.60000000000000009             0.95000000000000007            1.3810324037259576            
0.65000000000000002             0                              1.1000000000000001            
0.65000000000000002             0.050000000000000003           1.1152840446136076            
0.65000000000000002             0.10000000000000001            1.1309056500434571            
0.65000000000000002             0.15000000000000002            1.1468156123197559            
0.65000000000000002             0.20000000000000001            1.1629478348980056            
0.65000000000000002             0.25                           1.17920642655518              
0.65000000000000002             0.30000000000000004            1.1954945099323446            
0.65000000000000002             0.35000000000000003            1.2117482578899896            
0.65000000000000002             0.40000000000000002            1.227947030319827             
0.65000000000000002             0.45000000000000001            1.2441012116545818            
0.65000000000000002             0.5                            1.2602345431060922            
0.65000000000000002             0.55000000000000004            1.276371226769814             
0.65000000000000002             0.60000000000000009            1.2925273733337599            
0.65000000000000002             0.65000000000000002            1.3087023370228024            
0.65000000000000002             0.70000000000000007            1.3248683808382866            
0.65000000000000002             0.75                           1.3409649404841619            
0.65000000000000002             0.80000000000000004            1.3569114260503272            
0.65000000000000002             0.85000000000000009            1.3726479431638245            
0.65000000000000002             0.90000000000000002            1.3881902280876091            
0.65000000000000002             0.95000000000000007            1.4036649352541257            
0.70000000000000007             0                              1.1000000000000001            
0.70000000000000007             0.050000000000000003           1.1165638080666191            
0.70000000000000007             0.10000000000000001            1.1334352154677347            
0.70000000000000007             0.15000000000000002            1.1505677946140445            
0.70000000000000007             0.20000000000000001            1.1679090175976015            
0.70000000000000007             0.25                           1.1853784774289713            
0.70000000000000007             0.30000000000000004            1.2028868334620288            
0.70000000000000007             0.35000000000000003            1.2203679255556443            
0.70000000000000007             0.40000000000000002            1.2377942592924174            
0.70000000000000007             0.45000000000000001            1.255170402170446             
0.70000000000000007             0.5                            1.272516979865709             
0.70000000000000007             0.55000000000000004            1.2898564016786416            
0.70000000000000007             0.60000000000000009            1.3072020974187475            
0.70000000000000007             0.65000000000000002            1.3245483165657443            
0.70000000000000007             0.70000000000000007            1.3418602804552848            
0.70000000000000007             0.75                           1.3590722167024056            
0.70000000000000007             0.80000000000000004            1.3761062278513263            
0.70000000000000007             0.85000000000000009            1.3929164326581811            
0.70000000000000007             0.90000000000000002            1.409539412545906             
0.70000000000000007             0.95000000000000007            1.4261189140565107            
0.75                            0                              1.1000000000000001            
0.75                            0.050000000000000003           1.1178517185332093            
0.75                            0.10000000000000001            1.1359818792231877            
0.75                            0.15000000000000002            1.1543445111989707            
0.75                            0.20000000000000001            1.1728976707931886            
0.75                            0.25                           1.1915756369657002            
0.75                            0.30000000000000004            1.2102985410960962            
0.75                            0.35000000000000003            1.2290004768750222            
0.75                            0.40000000000000002            1.2476483214995262            
0.75                            0.45000000000000001            1.2662404459985477            
0.75                            0.5                            1.2847931850355905            
0.75                            0.55000000000000004            1.3033258219841914            
0.75                            0.60000000000000009            1.3218478197865968            
0.75                            0.65000000000000002            1.3403473108598338            
0.75                            0.70000000000000007            1.3587823407898849            
0.75                            0.75                           1.3770833494738874            
0.75                            0.80000000000000004            1.3951779502303501            