TITLE = 'DEM DATA | DEM DATA | DEM DATA | DEM DATA'
VARIABLES = 'X' 'Y' 'E' 
ZONE T='SubZone'
I=20 J=20 K=1 ZONETYPE=Ordered
DATAPACKING=POINT
DT=(SINGLE SINGLE SINGLE )
0                               0                              1.1000000000000001            
0                               0.050000000000000003           1.1000000000000001            
0                               0.10000000000000001            1.1000000000000001            
0                               0.15000000000000002            1.1000000000000001            
0                               0.20000000000000001            1.1000000000000001            
0                               0.25                           1.1000000000000001            
0                               0.30000000000000004            1.1000000000000001            
0                               0.35000000000000003            1.1000000000000001            
0                               0.40000000000000002            1.1000000000000001            
0                               0.45000000000000001            1.1000000000000001            
0                               0.5                            1.1000000000000001            
0                               0.55000000000000004            1.1000000000000001            
0                               0.60000000000000009            1.1000000000000001            
0                               0.65000000000000002            1.1000000000000001            
0                               0.70000000000000007            1.1000000000000001            
0                               0.75                           1.1000000000000001            
0                               0.80000000000000004            1.1000000000000001            
0                               0.85000000000000009            1.1000000000000001            
0                               0.90000000000000002            1.1000000000000001            
0                               0.95000000000000007            1.1000000000000001            
0.050000000000000003            0                              1.1000000000000001            
0.050000000000000003            0.050000000000000003           1.1021253140483165            
0.050000000000000003            0.10000000000000001            1.1046286998831254            
0.050000000000000003            0.15000000000000002            1.107191929618244             
0.050000000000000003            0.20000000000000001            1.1097221699380886            
0.050000000000000003            0.25                           1.1122188298663982            
0.050000000000000003            0.30000000000000004            1.1146945343464172            
0.050000000000000003            0.35000000000000003            1.1171595691643972            
0.050000000000000003            0.40000000000000002            1.1196214033456016            
0.050000000000000003            0.45000000000000001            1.1220862871699275            
0.050000000000000003            0.5                            1.1245598594952846            
0.050000000000000003            0.55000000000000004            1.1270472255995361            
0.050000000000000003            0.60000000000000009            1.1295528821950624            
0.050000000000000003            0.65000000000000002            1.1320806835087314            
0.050000000000000003            0.70000000000000007            1.1346340138753128            
0.050000000000000003            0.75                           1.1372164187219438            
0.050000000000000003            0.80000000000000004            1.1398327243318043            
0.050000000000000003            0.85000000000000009            1.1424860227230573            
0.050000000000000003            0.90000000000000002            1.1451511873620033            
0.050000000000000003            0.95000000000000007            1.147715538150907             
0.10000000000000001             0                              1.1000000000000001            
0.10000000000000001             0.050000000000000003           1.1043912754431799            
0.10000000000000001             0.10000000000000001            1.1093003565498625            
0.10000000000000001             0.15000000000000002            1.1143759510068061            
0.10000000000000001             0.20000000000000001            1.1194290121225861            
0.10000000000000001             0.25                           1.1244247081622616            
0.10000000000000001             0.30000000000000004            1.1293789230029181            
0.10000000000000001             0.35000000000000003            1.1343107095727873            
0.10000000000000001             0.40000000000000002            1.1392346014605437            
0.10000000000000001             0.45000000000000001            1.1441622982874153            
0.10000000000000001             0.5                            1.1491041309850261            
0.10000000000000001             0.55000000000000004            1.1540696459486528            
0.10000000000000001             0.60000000000000009            1.1590678054695955            
0.10000000000000001             0.65000000000000002            1.1641071167617039            
0.10000000000000001             0.70000000000000007            1.1691959282656368            
0.10000000000000001             0.75                           1.1743429621479122            
0.10000000000000001             0.80000000000000004            1.1795556741800435            
0.10000000000000001             0.85000000000000009            1.1848241398281263            
0.10000000000000001             0.90000000000000002            1.1900722636301151            
0.10000000000000001             0.95000000000000007            1.1951201030916532            
0.15000000000000002             0                              1.1000000000000001            
0.15000000000000002             0.050000000000000003           1.1067239056549905            
0.15000000000000002             0.10000000000000001            1.1140177491063592            
0.15000000000000002             0.15000000000000002            1.1215643217209796            
0.15000000000000002             0.20000000000000001            1.1291236180129576            
0.15000000000000002             0.25                           1.1366153533778194            
0.15000000000000002             0.30000000000000004            1.1440458390235659            
0.15000000000000002             0.35000000000000003            1.1514397230565161            
0.15000000000000002             0.40000000000000002            1.1588185274726501            
0.15000000000000002             0.45000000000000001            1.1661996717183973            
0.15000000000000002             0.5                            1.1735983446752964            
0.15000000000000002             0.55000000000000004            1.1810285782619248            
0.15000000000000002             0.60000000000000009            1.1885037187869252            
0.15000000000000002             0.65000000000000002            1.1960367317629816            
0.15000000000000002             0.70000000000000007            1.2036405473578624            
0.15000000000000002             0.75                           1.2113275545384556            
0.15000000000000002             0.80000000000000004            1.219101872712268             
0.15000000000000002             0.85000000000000009            1.2269295125368331            
0.15000000000000002             0.90000000000000002            1.2346891748075088            
0.15000000000000002             0.95000000000000007            1.2421986520983739            
0.20000000000000001             0                              1.1000000000000001            
0.20000000000000001             0.050000000000000003           1.1090942721713986            
0.20000000000000001             0.10000000000000001            1.1187733234461756            
0.20000000000000001             0.15000000000000002            1.1287641374873603            
0.20000000000000001             0.20000000000000001            1.1388100743750225            
0.20000000000000001             0.25                           1.1487905657991346            
0.20000000000000001             0.30000000000000004            1.1586931496296715            
0.20000000000000001             0.35000000000000003            1.1685430244633268            
0.20000000000000001             0.40000000000000002            1.1783676586879088            
0.20000000000000001             0.45000000000000001            1.1881901359481555            
0.20000000000000001             0.5                            1.1980304536122002            
0.20000000000000001             0.55000000000000004            1.2079070035787118            
0.20000000000000001             0.60000000000000009            1.2178373548579573            
0.20000000000000001             0.65000000000000002            1.2278386987555503            
0.20000000000000001             0.70000000000000007            1.2379278689470627            
0.20000000000000001             0.75                           1.248118356599464             
0.20000000000000001             0.80000000000000004            1.2584047241143392            
0.20000000000000001             0.85000000000000009            1.268725304013876             
0.20000000000000001             0.90000000000000002            1.2789331721503872            
0.20000000000000001             0.95000000000000007            1.2888841080519766            
0.25                            0                              1.1000000000000001            
0.25                            0.050000000000000003           1.111489395031019             
0.25                            0.10000000000000001            1.123559788464342             
0.25                            0.15000000000000002            1.135978574900689             
0.25                            0.20000000000000001            1.1484922725546904            
0.25                            0.25                           1.160950837794902             
0.25                            0.30000000000000004            1.1733188880146992            
0.25                            0.35000000000000003            1.1856167872924537            
0.25                            0.40000000000000002            1.1978759148401672            
0.25                            0.45000000000000001            1.2101245855949005            
0.25                            0.5                            1.2223874382957158            
0.25                            0.55000000000000004            1.2346870106466963            
0.25                            0.60000000000000009            1.2470448101131175            
0.25                            0.65000000000000002            1.259481789087213             
0.25                            0.70000000000000007            1.2720174673413009            
0.25                            0.75                           1.2846631631011882            
0.25                            0.80000000000000004            1.2973993117850686            
0.25                            0.85000000000000009            1.3101395137607523            
0.25                            0.90000000000000002            1.3227320989578735            
0.25                            0.95000000000000007            1.3350905040521766            
0.30000000000000004             0                              1.1000000000000001            
0.30000000000000004             0.050000000000000003           1.113902579271892             
0.30000000000000004             0.10000000000000001            1.128371670238794             
0.30000000000000004             0.15000000000000002            1.1432086729863036            
0.30000000000000004             0.20000000000000001            1.1581733384282047            
0.30000000000000004             0.25                           1.1730970401420451            
0.30000000000000004             0.30000000000000004            1.1879213226965299            
0.30000000000000004             0.35000000000000003            1.2026571689847685            
0.30000000000000004             0.40000000000000002            1.2173371259859633            
0.30000000000000004             0.45000000000000001            1.2319938252838831            
0.30000000000000004             0.5                            1.2466561954972843            
0.30000000000000004             0.55000000000000004            1.2613505982637558            
0.30000000000000004             0.60000000000000009            1.276102057092843             
0.30000000000000004             0.65000000000000002            1.2909345457769956            
0.30000000000000004             0.70000000000000007            1.3058685481337431            
0.30000000000000004             0.75                           1.3209098228007217            
0.30000000000000004             0.80000000000000004            1.3360225681713636            
0.30000000000000004             0.85000000000000009            1.351102440886689             
0.30000000000000004             0.90000000000000002            1.3660101521992156            
0.30000000000000004             0.95000000000000007            1.3807244385521662            
0.35000000000000003             0                              1.1000000000000001            
0.35000000000000003             0.050000000000000003           1.1163298989397226            
0.35000000000000003             0.10000000000000001            1.1332049966571636            
0.35000000000000003             0.15000000000000002            1.150454409360673             
0.35000000000000003             0.20000000000000001            1.167855531414034             
0.35000000000000003             0.25                           1.1852301190308687            
0.35000000000000003             0.30000000000000004            1.2024989039134639            
0.35000000000000003             0.35000000000000003            1.2196602974880559            
0.35000000000000003             0.40000000000000002            1.236744974177352             
0.35000000000000003             0.45000000000000001            1.2537884798736614            
0.35000000000000003             0.5                            1.2708234367009352            
0.35000000000000003             0.55000000000000004            1.2878795743230953            
0.35000000000000003             0.60000000000000009            1.3049848459401772            
0.35000000000000003             0.65000000000000002            1.3221652059693145            
0.35000000000000003             0.70000000000000007            1.3394400146916632            
0.35000000000000003             0.75                           1.3568065466513104            
0.35000000000000003             0.80000000000000004            1.3742130204021317            
0.35000000000000003             0.85000000000000009            1.3915453643658182            
0.35000000000000003             0.90000000000000002            1.4086890518205106            
0.35000000000000003             0.95000000000000007            1.4256895533512164            
0.40000000000000002             0                              1.1000000000000001            
0.40000000000000002             0.050000000000000003           1.1187687766335499            
0.40000000000000002             0.10000000000000001            1.1380567910437585            
0.40000000000000002             0.15000000000000002            1.1577152247660456            
0.40000000000000002             0.20000000000000001            1.1775403184908559            
0.40000000000000002             0.25                           1.1973508713455032            
0.40000000000000002             0.30000000000000004            1.2170501690363684            
0.40000000000000002             0.35000000000000003            1.2366222555760547            
0.40000000000000002             0.40000000000000002            1.2560929630895956            
0.40000000000000002             0.45000000000000001            1.275498944490367             
0.40000000000000002             0.5                            1.2948756307195994            
0.40000000000000002             0.55000000000000004            1.314255493168079             
0.40000000000000002             0.60000000000000009            1.3336686374067777            
0.40000000000000002             0.65000000000000002            1.3531416678810133            
0.40000000000000002             0.70000000000000007            1.3726905503373008            
0.40000000000000002             0.75                           1.3923021077190914            
0.40000000000000002             0.80000000000000004            1.4119104678835916            
0.40000000000000002             0.85000000000000009            1.431400000571057             
0.40000000000000002             0.90000000000000002            1.4506891300064966            
0.40000000000000002             0.95000000000000007            1.4698885742085286            
0.45000000000000001             0                              1.1000000000000001            
0.45000000000000001             0.050000000000000003           1.1212173473444034            
0.45000000000000001             0.10000000000000001            1.1429246893708254            
0.45000000000000001             0.15000000000000002            1.164990250336182             
0.45000000000000001             0.20000000000000001            1.1872284820561017            
0.45000000000000001             0.25                           1.2094597954625832            
0.45000000000000001             0.30000000000000004            1.2315736384588118            
0.45000000000000001             0.35000000000000003            1.2535390558314243            
0.45000000000000001             0.40000000000000002            1.2753743989956166            
0.45000000000000001             0.45000000000000001            1.2971153488786351            
0.45000000000000001             0.5                            1.3187989582172288            
0.45000000000000001             0.55000000000000004            1.3404596051804891            
0.45000000000000001             0.60000000000000009            1.3621285580988469            
0.45000000000000001             0.65000000000000002            1.38383150046381              
0.45000000000000001             0.70000000000000007            1.4055787816507666            
0.45000000000000001             0.75                           1.4273458917872306            
0.45000000000000001             0.80000000000000004            1.4490557243073594            
0.45000000000000001             0.85000000000000009            1.4705983613198104            
0.45000000000000001             0.90000000000000002            1.4919301527677924            
0.45000000000000001             0.95000000000000007            1.5132244110648463            
0.5                             0                              1.1000000000000001            
0.5                             0.050000000000000003           1.1236741481392747            
0.5                             0.10000000000000001            1.1478066921575789            
0.5                             0.15000000000000002            1.1722783981817599            
0.5                             0.20000000000000001            1.1969202146717035            
0.5                             0.25                           1.2215570038261658            
0.5                             0.30000000000000004            1.2460677180916222            
0.5                             0.35000000000000003            1.2704066045019706            
0.5                             0.40000000000000002            1.2945823799190515            
0.5                             0.45000000000000001            1.3186275369799827            
0.5                             0.5                            1.3425792809031756            
0.5                             0.55000000000000004            1.3664728225945839            
0.5                             0.60000000000000009            1.3903393804731814            
0.5                             0.65000000000000002            1.4142019636047132            
0.5                             0.70000000000000007            1.4380634421710745            
0.5                             0.75                           1.4618879227686317            
0.5                             0.80000000000000004            1.4855904519092595            
0.5                             0.85000000000000009            1.5090728013887662            
0.5                             0.90000000000000002            1.5323319329063465            
0.5                             0.95000000000000007            1.5556008555341538            
0.55000000000000004             0                              1.1000000000000001            
0.55000000000000004             0.050000000000000003           1.1261379577911752            
0.55000000000000004             0.10000000000000001            1.152701013772129             
0.55000000000000004             0.15000000000000002            1.1795783975941767            
0.55000000000000004             0.20000000000000001            1.2066151941743799            
0.55000000000000004             0.25                           1.2336421778781386            
0.55000000000000004             0.30000000000000004            1.2605306159409322            
0.55000000000000004             0.35000000000000003            1.2872206615487694            
0.55000000000000004             0.40000000000000002            1.313709789127234             
0.55000000000000004             0.45000000000000001            1.3400250601617802            
0.55000000000000004             0.5                            1.3662021261140527            
0.55000000000000004             0.55000000000000004            1.3922757032854549            
0.55000000000000004             0.60000000000000009            1.4182755254014157            
0.55000000000000004             0.65000000000000002            1.444220072811599             
0.55000000000000004             0.70000000000000007            1.4701034953601124            
0.55000000000000004             0.75                           1.4958788899413056            
0.55000000000000004             0.80000000000000004            1.5214570843593613            
0.55000000000000004             0.85000000000000009            1.5467561532985752            
0.55000000000000004             0.90000000000000002            1.5718148083138195            
0.55000000000000004             0.95000000000000007            1.596923088192143             
0.60000000000000009             0                              1.1000000000000001            
0.60000000000000009             0.050000000000000003           1.1286077135882733            
0.60000000000000009             0.10000000000000001            1.1576059973774409            
0.60000000000000009             0.15000000000000002            1.1868888153637946            
0.60000000000000009             0.20000000000000001            1.2163126447697574            
0.60000000000000009             0.25                           1.2457145504204099            
0.60000000000000009             0.30000000000000004            1.2749602721101989            
0.60000000000000009             0.35000000000000003            1.3039768188889396            
0.60000000000000009             0.40000000000000002            1.3327492777683392            
0.60000000000000009             0.45000000000000001            1.3612971797887985            
0.60000000000000009             0.5                            1.3896526858443947            
0.60000000000000009             0.55000000000000004            1.4178484477993203            
0.60000000000000009             0.60000000000000009            1.4459110440145226            
0.60000000000000009             0.65000000000000002            1.4738528001054023            
0.60000000000000009             0.70000000000000007            1.5016581866468717            
0.60000000000000009             0.75                           1.5292701680825325            
0.60000000000000009             0.80000000000000004            1.5565988181449486            
0.60000000000000009             0.85000000000000009            1.5835819032134224            
0.60000000000000009             0.90000000000000002            1.6103000396060534            
0.60000000000000009             0.95000000000000007            1.6370980913156021            
0.65000000000000002             0                              1.1000000000000001            
0.65000000000000002             0.050000000000000003           1.1310824811974642            
0.65000000000000002             0.10000000000000001            1.1625200813777654            
0.65000000000000002             0.15000000000000002            1.1942080798150063            
0.65000000000000002             0.20000000000000001            1.2260113921942928            
0.65000000000000002             0.25                           1.2577729082372857            
0.65000000000000002             0.30000000000000004            1.2893543153545488            
0.65000000000000002             0.35000000000000003            1.3206704694948654            
0.65000000000000002             0.40000000000000002            1.3516932742148962            
0.65000000000000002             0.45000000000000001            1.3824328421779761            
0.65000000000000002             0.5                            1.4129157935617354            
0.65000000000000002             0.55000000000000004            1.4431708530416765            
0.65000000000000002             0.60000000000000009            1.4732197422338842            
0.65000000000000002             0.65000000000000002            1.5030671648609879            
0.65000000000000002             0.70000000000000007            1.532687144334772             
0.65000000000000002             0.75                           1.5620138435519155            
0.65000000000000002             0.80000000000000004            1.5909596535337081            
0.65000000000000002             0.85000000000000009            1.6194843934649816            
0.65000000000000002             0.90000000000000002            1.6477101782113177            
0.65000000000000002             0.95000000000000007            1.6760350361486518            
0.70000000000000007             0                              1.1000000000000001            
0.70000000000000007             0.050000000000000003           1.1335615126465928            
0.70000000000000007             0.10000000000000001            1.1674418481864466            
0.70000000000000007             0.15000000000000002            1.2015345355579143            
0.70000000000000007             0.20000000000000001            1.2357099252421613            
0.70000000000000007             0.25                           1.269815612628912             
0.70000000000000007             0.30000000000000004            1.3037100379541149            
0.70000000000000007             0.35000000000000003            1.3372967738484396            
0.70000000000000007             0.40000000000000002            1.3705340195121436            
0.70000000000000007             0.45000000000000001            1.4034207350760501            
0.70000000000000007             0.5                            1.4359759333923414            
0.70000000000000007             0.55000000000000004            1.4682224482317403            
0.70000000000000007             0.60000000000000009            1.5001753590929254            
0.70000000000000007             0.65000000000000002            1.5318302849679633            
0.70000000000000007             0.70000000000000007            1.5631504661142512            
0.70000000000000007             0.75                           1.5940627582355047            
0.70000000000000007             0.80000000000000004            1.6244844857607563            
0.70000000000000007             0.85000000000000009            1.6543990927954724            
0.70000000000000007             0.90000000000000002            1.6839695422904537            
0.70000000000000007             0.95000000000000007            1.7136458111225197            
0.75                            0                              1.1000000000000001            
0.75                            0.050000000000000003           1.136044629502774             
0.75                            0.10000000000000001            1.1723703774563523            
0.75                            0.15000000000000002            1.2088666499391509            
0.75                            0.20000000000000001            1.2454065095635962            
0.75                            0.25                           1.2818406462065346            
0.75                            0.30000000000000004            1.3180243904019493            
0.75                            0.35000000000000003            1.3538506470305296            
0.75                            0.40000000000000002            1.3892635482956404            
0.75                            0.45000000000000001            1.4242493614706124            
0.75                            0.5                            1.4588174266439409            
0.75                            0.55000000000000004            1.4929826294426245            
0.75                            0.60000000000000009            1.526751566904152             
0.75                            0.65000000000000002            1.5601094876963821            
0.75                            0.70000000000000007            1.5930087996948326            
0.75                            0.75                           1.6253705936020624            
0.75                            0.80000000000000004            1.6571193405905744            